
     Program PWSCF v.6.8 starts on 14Jun2022 at 15:55:38 

     This program is part of the open-source Quantum ESPRESSO suite
     for quantum simulation of materials; please cite
         "P. Giannozzi et al., J. Phys.:Condens. Matter 21 395502 (2009);
         "P. Giannozzi et al., J. Phys.:Condens. Matter 29 465901 (2017);
         "P. Giannozzi et al., J. Chem. Phys. 152 154105 (2020);
          URL http://www.quantum-espresso.org", 
     in publications or presentations arising from this work. More details at
     http://www.quantum-espresso.org/quote

     Parallel version (MPI), running on     1 processors

     MPI processes distributed on     1 nodes
     189645 MiB available memory on the printing compute node when the environment starts

     Reading input from scf_1.7.in

     Current dimensions of program PWSCF are:
     Max number of different atomic species (ntypx) = 10
     Max number of k-points (npk) =  40000
     Max angular momentum in pseudopotentials (lmaxx) =  4

     Program PWSCF v.6.8 starts on 14Jun2022 at 15:55:38 

     This program is part of the open-source Quantum ESPRESSO suite
     for quantum simulation of materials; please cite
         "P. Giannozzi et al., J. Phys.:Condens. Matter 21 395502 (2009);
         "P. Giannozzi et al., J. Phys.:Condens. Matter 29 465901 (2017);
         "P. Giannozzi et al., J. Chem. Phys. 152 154105 (2020);
          URL http://www.quantum-espresso.org", 
     in publications or presentations arising from this work. More details at
     http://www.quantum-espresso.org/quote

     Parallel version (MPI), running on     1 processors

     MPI processes distributed on     1 nodes
     189634 MiB available memory on the printing compute node when the environment starts

     Reading input from scf_1.7.in

     Current dimensions of program PWSCF are:
     Max number of different atomic species (ntypx) = 10
     Max number of k-points (npk) =  40000
     Max angular momentum in pseudopotentials (lmaxx) =  4

     Program PWSCF v.6.8 starts on 14Jun2022 at 15:55:38 

     This program is part of the open-source Quantum ESPRESSO suite
     for quantum simulation of materials; please cite
         "P. Giannozzi et al., J. Phys.:Condens. Matter 21 395502 (2009);
         "P. Giannozzi et al., J. Phys.:Condens. Matter 29 465901 (2017);
         "P. Giannozzi et al., J. Chem. Phys. 152 154105 (2020);
          URL http://www.quantum-espresso.org", 
     in publications or presentations arising from this work. More details at
     http://www.quantum-espresso.org/quote

     Parallel version (MPI), running on     1 processors

     MPI processes distributed on     1 nodes
     189620 MiB available memory on the printing compute node when the environment starts

     Reading input from scf_1.7.in

     Current dimensions of program PWSCF are:
     Max number of different atomic species (ntypx) = 10
     Max number of k-points (npk) =  40000
     Max angular momentum in pseudopotentials (lmaxx) =  4

     Program PWSCF v.6.8 starts on 14Jun2022 at 15:55:38 

     This program is part of the open-source Quantum ESPRESSO suite
     for quantum simulation of materials; please cite
         "P. Giannozzi et al., J. Phys.:Condens. Matter 21 395502 (2009);
         "P. Giannozzi et al., J. Phys.:Condens. Matter 29 465901 (2017);
         "P. Giannozzi et al., J. Chem. Phys. 152 154105 (2020);
          URL http://www.quantum-espresso.org", 
     in publications or presentations arising from this work. More details at
     http://www.quantum-espresso.org/quote

     Parallel version (MPI), running on     1 processors

     MPI processes distributed on     1 nodes
     189610 MiB available memory on the printing compute node when the environment starts

     Reading input from scf_1.7.in

     Current dimensions of program PWSCF are:
     Max number of different atomic species (ntypx) = 10
     Max number of k-points (npk) =  40000
     Max angular momentum in pseudopotentials (lmaxx) =  4

     Program PWSCF v.6.8 starts on 14Jun2022 at 15:55:38 

     This program is part of the open-source Quantum ESPRESSO suite
     for quantum simulation of materials; please cite
         "P. Giannozzi et al., J. Phys.:Condens. Matter 21 395502 (2009);
         "P. Giannozzi et al., J. Phys.:Condens. Matter 29 465901 (2017);
         "P. Giannozzi et al., J. Chem. Phys. 152 154105 (2020);
          URL http://www.quantum-espresso.org", 
     in publications or presentations arising from this work. More details at
     http://www.quantum-espresso.org/quote

     Parallel version (MPI), running on     1 processors

     MPI processes distributed on     1 nodes
     189599 MiB available memory on the printing compute node when the environment starts

     Reading input from scf_1.7.in

     Program PWSCF v.6.8 starts on 14Jun2022 at 15:55:38 

     This program is part of the open-source Quantum ESPRESSO suite
     for quantum simulation of materials; please cite
         "P. Giannozzi et al., J. Phys.:Condens. Matter 21 395502 (2009);
         "P. Giannozzi et al., J. Phys.:Condens. Matter 29 465901 (2017);
         "P. Giannozzi et al., J. Chem. Phys. 152 154105 (2020);
          URL http://www.quantum-espresso.org", 
     in publications or presentations arising from this work. More details at
     http://www.quantum-espresso.org/quote

     Parallel version (MPI), running on     1 processors

     MPI processes distributed on     1 nodes
     189592 MiB available memory on the printing compute node when the environment starts

     Reading input from scf_1.7.in

     Current dimensions of program PWSCF are:
     Max number of different atomic species (ntypx) = 10
     Max number of k-points (npk) =  40000
     Max angular momentum in pseudopotentials (lmaxx) =  4

     Current dimensions of program PWSCF are:
     Max number of different atomic species (ntypx) = 10
     Max number of k-points (npk) =  40000
     Max angular momentum in pseudopotentials (lmaxx) =  4

     Program PWSCF v.6.8 starts on 14Jun2022 at 15:55:38 

     This program is part of the open-source Quantum ESPRESSO suite
     for quantum simulation of materials; please cite
         "P. Giannozzi et al., J. Phys.:Condens. Matter 21 395502 (2009);
         "P. Giannozzi et al., J. Phys.:Condens. Matter 29 465901 (2017);
         "P. Giannozzi et al., J. Chem. Phys. 152 154105 (2020);
          URL http://www.quantum-espresso.org", 
     in publications or presentations arising from this work. More details at
     http://www.quantum-espresso.org/quote

     Parallel version (MPI), running on     1 processors

     MPI processes distributed on     1 nodes
     189575 MiB available memory on the printing compute node when the environment starts

     Reading input from scf_1.7.in

     Current dimensions of program PWSCF are:
     Max number of different atomic species (ntypx) = 10
     Max number of k-points (npk) =  40000
     Max angular momentum in pseudopotentials (lmaxx) =  4
     file Si.pbe-n-kjpaw_psl.1.0.0.UPF: wavefunction(s)  3S 3P renormalized
     Message from routine set_cutoff:
     ecutrho < 4*ecutwfc, are you sure?
     Found symmetry operation: I + (  0.0000  0.5000 -0.5000)
     This is a supercell, fractional translations are disabled
     Message from routine setup:
     using ibrav=0 with symmetry is DISCOURAGED, use correct ibrav instead

     Subspace diagonalization in iterative solution of the eigenvalue problem:
     a serial algorithm will be used


     G-vector sticks info
     --------------------
     sticks:   dense  smooth     PW     G-vecs:    dense   smooth      PW
     Sum         193     193     89                 2103     2103     619

     Using Slab Decomposition



     bravais-lattice index     =            0
     lattice parameter (alat)  =       3.2125  a.u.
     unit-cell volume          =      33.1546 (a.u.)^3
     number of atoms/cell      =            8
     number of atomic types    =            1
     number of electrons       =        32.00
     number of Kohn-Sham states=           16
     kinetic-energy cutoff     =      80.0000  Ry
     charge density cutoff     =     240.0000  Ry
     scf convergence threshold =      1.0E-08
     mixing beta               =       0.7000
     number of iterations used =            8  plain     mixing
     Exchange-correlation= SLA  PW   PBX  PBC
                           (   1   4   3   4   0   0   0)

     celldm(1)=   3.212534  celldm(2)=   0.000000  celldm(3)=   0.000000
     celldm(4)=   0.000000  celldm(5)=   0.000000  celldm(6)=   0.000000

     crystal axes: (cart. coord. in units of alat)
               a(1) = (   1.000000   0.000000   0.000000 )  
               a(2) = (   0.000000   1.000000   0.000000 )  
               a(3) = (   0.000000   0.000000   1.000000 )  

     reciprocal axes: (cart. coord. in units 2 pi/alat)
               b(1) = (  1.000000  0.000000  0.000000 )  
               b(2) = (  0.000000  1.000000  0.000000 )  
               b(3) = (  0.000000  0.000000  1.000000 )  


     PseudoPot. # 1 for Si read from file:
     ./pseudo/Si.pbe-n-kjpaw_psl.1.0.0.UPF
     MD5 check sum: c39c59da582df4a0d9f10159256ea34e
     Pseudo is Projector augmented-wave + core cor, Zval =  4.0
     Generated using &quot;atomic&quot; code by A. Dal Corso  v.6.3
     Shape of augmentation charge: PSQ
     Using radial grid of 1141 points,  6 beta functions with: 
                l(1) =   0
                l(2) =   0
                l(3) =   1
                l(4) =   1
                l(5) =   2
                l(6) =   2
     Q(r) pseudized with 0 coefficients 


     atomic species   valence    mass     pseudopotential
        Si             4.00    28.08500     Si( 1.00)

     24 Sym. Ops. (no inversion) found



   Cartesian axes

     site n.     atom                  positions (alat units)
         1           Si  tau(   1) = (   0.2500000   0.7500000   0.2500000  )
         2           Si  tau(   2) = (   0.0000000   0.0000000   0.5000000  )
         3           Si  tau(   3) = (   0.2500000   0.2500000   0.7500000  )
         4           Si  tau(   4) = (   0.0000000   0.5000000   0.0000000  )
         5           Si  tau(   5) = (   0.7500000   0.7500000   0.7500000  )
         6           Si  tau(   6) = (   0.5000000   0.0000000   0.0000000  )
         7           Si  tau(   7) = (   0.7500000   0.2500000   0.2500000  )
         8           Si  tau(   8) = (   0.5000000   0.5000000   0.5000000  )

     number of k points=     4
                       cart. coord. in units 2pi/alat
        k(    1) = (   0.1250000   0.1250000   0.1250000), wk =   0.2500000
        k(    2) = (   0.1250000   0.1250000   0.3750000), wk =   0.7500000
        k(    3) = (   0.1250000   0.3750000   0.3750000), wk =   0.7500000
        k(    4) = (   0.3750000   0.3750000   0.3750000), wk =   0.2500000

     Dense  grid:     2103 G-vectors     FFT dimensions: (  15,  15,  15)

     Estimated max dynamical RAM per process >       9.95 MB

     Program PWSCF v.6.8 starts on 14Jun2022 at 15:55:38 

     This program is part of the open-source Quantum ESPRESSO suite
     for quantum simulation of materials; please cite
         "P. Giannozzi et al., J. Phys.:Condens. Matter 21 395502 (2009);
         "P. Giannozzi et al., J. Phys.:Condens. Matter 29 465901 (2017);
         "P. Giannozzi et al., J. Chem. Phys. 152 154105 (2020);
          URL http://www.quantum-espresso.org", 
     in publications or presentations arising from this work. More details at
     http://www.quantum-espresso.org/quote

     Parallel version (MPI), running on     1 processors

     MPI processes distributed on     1 nodes
     189562 MiB available memory on the printing compute node when the environment starts

     Reading input from scf_1.7.in

     Current dimensions of program PWSCF are:
     Max number of different atomic species (ntypx) = 10
     Max number of k-points (npk) =  40000
     Max angular momentum in pseudopotentials (lmaxx) =  4

     Program PWSCF v.6.8 starts on 14Jun2022 at 15:55:38 

     This program is part of the open-source Quantum ESPRESSO suite
     for quantum simulation of materials; please cite
         "P. Giannozzi et al., J. Phys.:Condens. Matter 21 395502 (2009);
         "P. Giannozzi et al., J. Phys.:Condens. Matter 29 465901 (2017);
         "P. Giannozzi et al., J. Chem. Phys. 152 154105 (2020);
          URL http://www.quantum-espresso.org", 
     in publications or presentations arising from this work. More details at
     http://www.quantum-espresso.org/quote

     Parallel version (MPI), running on     1 processors

     MPI processes distributed on     1 nodes
     189551 MiB available memory on the printing compute node when the environment starts

     Reading input from scf_1.7.in

     Current dimensions of program PWSCF are:
     Max number of different atomic species (ntypx) = 10
     Max number of k-points (npk) =  40000
     Max angular momentum in pseudopotentials (lmaxx) =  4

     Program PWSCF v.6.8 starts on 14Jun2022 at 15:55:38 

     This program is part of the open-source Quantum ESPRESSO suite
     for quantum simulation of materials; please cite
         "P. Giannozzi et al., J. Phys.:Condens. Matter 21 395502 (2009);
         "P. Giannozzi et al., J. Phys.:Condens. Matter 29 465901 (2017);
         "P. Giannozzi et al., J. Chem. Phys. 152 154105 (2020);
          URL http://www.quantum-espresso.org", 
     in publications or presentations arising from this work. More details at
     http://www.quantum-espresso.org/quote

     Parallel version (MPI), running on     1 processors

     MPI processes distributed on     1 nodes
     189539 MiB available memory on the printing compute node when the environment starts

     Reading input from scf_1.7.in

     Current dimensions of program PWSCF are:
     Max number of different atomic species (ntypx) = 10
     Max number of k-points (npk) =  40000
     Max angular momentum in pseudopotentials (lmaxx) =  4

     Program PWSCF v.6.8 starts on 14Jun2022 at 15:55:38 

     This program is part of the open-source Quantum ESPRESSO suite
     for quantum simulation of materials; please cite
         "P. Giannozzi et al., J. Phys.:Condens. Matter 21 395502 (2009);
         "P. Giannozzi et al., J. Phys.:Condens. Matter 29 465901 (2017);
         "P. Giannozzi et al., J. Chem. Phys. 152 154105 (2020);
          URL http://www.quantum-espresso.org", 
     in publications or presentations arising from this work. More details at
     http://www.quantum-espresso.org/quote

     Parallel version (MPI), running on     1 processors

     MPI processes distributed on     1 nodes
     189526 MiB available memory on the printing compute node when the environment starts

     Reading input from scf_1.7.in

     Program PWSCF v.6.8 starts on 14Jun2022 at 15:55:38 

     This program is part of the open-source Quantum ESPRESSO suite
     for quantum simulation of materials; please cite
         "P. Giannozzi et al., J. Phys.:Condens. Matter 21 395502 (2009);
         "P. Giannozzi et al., J. Phys.:Condens. Matter 29 465901 (2017);
         "P. Giannozzi et al., J. Chem. Phys. 152 154105 (2020);
          URL http://www.quantum-espresso.org", 
     in publications or presentations arising from this work. More details at
     http://www.quantum-espresso.org/quote

     Parallel version (MPI), running on     1 processors

     MPI processes distributed on     1 nodes
     189514 MiB available memory on the printing compute node when the environment starts

     Reading input from scf_1.7.in

     Current dimensions of program PWSCF are:
     Max number of different atomic species (ntypx) = 10
     Max number of k-points (npk) =  40000
     Max angular momentum in pseudopotentials (lmaxx) =  4

     Current dimensions of program PWSCF are:
     Max number of different atomic species (ntypx) = 10
     Max number of k-points (npk) =  40000
     Max angular momentum in pseudopotentials (lmaxx) =  4
     file Si.pbe-n-kjpaw_psl.1.0.0.UPF: wavefunction(s)  3S 3P renormalized
     Message from routine set_cutoff:
     ecutrho < 4*ecutwfc, are you sure?
     Found symmetry operation: I + (  0.0000  0.5000 -0.5000)
     This is a supercell, fractional translations are disabled
     Message from routine setup:
     using ibrav=0 with symmetry is DISCOURAGED, use correct ibrav instead

     Subspace diagonalization in iterative solution of the eigenvalue problem:
     a serial algorithm will be used


     G-vector sticks info
     --------------------
     sticks:   dense  smooth     PW     G-vecs:    dense   smooth      PW
     Sum         193     193     89                 2103     2103     619

     Using Slab Decomposition



     bravais-lattice index     =            0
     lattice parameter (alat)  =       3.2125  a.u.
     unit-cell volume          =      33.1546 (a.u.)^3
     number of atoms/cell      =            8
     number of atomic types    =            1
     number of electrons       =        32.00
     number of Kohn-Sham states=           16
     kinetic-energy cutoff     =      80.0000  Ry
     charge density cutoff     =     240.0000  Ry
     scf convergence threshold =      1.0E-08
     mixing beta               =       0.7000
     number of iterations used =            8  plain     mixing
     Exchange-correlation= SLA  PW   PBX  PBC
                           (   1   4   3   4   0   0   0)

     celldm(1)=   3.212534  celldm(2)=   0.000000  celldm(3)=   0.000000
     celldm(4)=   0.000000  celldm(5)=   0.000000  celldm(6)=   0.000000

     crystal axes: (cart. coord. in units of alat)
               a(1) = (   1.000000   0.000000   0.000000 )  
               a(2) = (   0.000000   1.000000   0.000000 )  
               a(3) = (   0.000000   0.000000   1.000000 )  

     reciprocal axes: (cart. coord. in units 2 pi/alat)
               b(1) = (  1.000000  0.000000  0.000000 )  
               b(2) = (  0.000000  1.000000  0.000000 )  
               b(3) = (  0.000000  0.000000  1.000000 )  


     PseudoPot. # 1 for Si read from file:
     ./pseudo/Si.pbe-n-kjpaw_psl.1.0.0.UPF
     MD5 check sum: c39c59da582df4a0d9f10159256ea34e
     Pseudo is Projector augmented-wave + core cor, Zval =  4.0
     Generated using &quot;atomic&quot; code by A. Dal Corso  v.6.3
     Shape of augmentation charge: PSQ
     Using radial grid of 1141 points,  6 beta functions with: 
                l(1) =   0
                l(2) =   0
                l(3) =   1
                l(4) =   1
                l(5) =   2
                l(6) =   2
     Q(r) pseudized with 0 coefficients 


     atomic species   valence    mass     pseudopotential
        Si             4.00    28.08500     Si( 1.00)

     24 Sym. Ops. (no inversion) found



   Cartesian axes

     site n.     atom                  positions (alat units)
         1           Si  tau(   1) = (   0.2500000   0.7500000   0.2500000  )
         2           Si  tau(   2) = (   0.0000000   0.0000000   0.5000000  )
         3           Si  tau(   3) = (   0.2500000   0.2500000   0.7500000  )
         4           Si  tau(   4) = (   0.0000000   0.5000000   0.0000000  )
         5           Si  tau(   5) = (   0.7500000   0.7500000   0.7500000  )
         6           Si  tau(   6) = (   0.5000000   0.0000000   0.0000000  )
         7           Si  tau(   7) = (   0.7500000   0.2500000   0.2500000  )
         8           Si  tau(   8) = (   0.5000000   0.5000000   0.5000000  )

     number of k points=     4
                       cart. coord. in units 2pi/alat
        k(    1) = (   0.1250000   0.1250000   0.1250000), wk =   0.2500000
        k(    2) = (   0.1250000   0.1250000   0.3750000), wk =   0.7500000
        k(    3) = (   0.1250000   0.3750000   0.3750000), wk =   0.7500000
        k(    4) = (   0.3750000   0.3750000   0.3750000), wk =   0.2500000

     Dense  grid:     2103 G-vectors     FFT dimensions: (  15,  15,  15)

     Estimated max dynamical RAM per process >       9.95 MB

     Program PWSCF v.6.8 starts on 14Jun2022 at 15:55:38 

     This program is part of the open-source Quantum ESPRESSO suite
     for quantum simulation of materials; please cite
         "P. Giannozzi et al., J. Phys.:Condens. Matter 21 395502 (2009);
         "P. Giannozzi et al., J. Phys.:Condens. Matter 29 465901 (2017);
         "P. Giannozzi et al., J. Chem. Phys. 152 154105 (2020);
          URL http://www.quantum-espresso.org", 
     in publications or presentations arising from this work. More details at
     http://www.quantum-espresso.org/quote

     Parallel version (MPI), running on     1 processors

     MPI processes distributed on     1 nodes
     189499 MiB available memory on the printing compute node when the environment starts

     Reading input from scf_1.7.in

     Current dimensions of program PWSCF are:
     Max number of different atomic species (ntypx) = 10
     Max number of k-points (npk) =  40000
     Max angular momentum in pseudopotentials (lmaxx) =  4
     file Si.pbe-n-kjpaw_psl.1.0.0.UPF: wavefunction(s)  3S 3P renormalized
     Message from routine set_cutoff:
     ecutrho < 4*ecutwfc, are you sure?
     Found symmetry operation: I + (  0.0000  0.5000 -0.5000)
     This is a supercell, fractional translations are disabled
     Message from routine setup:
     using ibrav=0 with symmetry is DISCOURAGED, use correct ibrav instead

     Subspace diagonalization in iterative solution of the eigenvalue problem:
     a serial algorithm will be used


     G-vector sticks info
     --------------------
     sticks:   dense  smooth     PW     G-vecs:    dense   smooth      PW
     Sum         193     193     89                 2103     2103     619

     Using Slab Decomposition



     bravais-lattice index     =            0
     lattice parameter (alat)  =       3.2125  a.u.
     unit-cell volume          =      33.1546 (a.u.)^3
     number of atoms/cell      =            8
     number of atomic types    =            1
     number of electrons       =        32.00
     number of Kohn-Sham states=           16
     kinetic-energy cutoff     =      80.0000  Ry
     charge density cutoff     =     240.0000  Ry
     scf convergence threshold =      1.0E-08
     mixing beta               =       0.7000
     number of iterations used =            8  plain     mixing
     Exchange-correlation= SLA  PW   PBX  PBC
                           (   1   4   3   4   0   0   0)

     celldm(1)=   3.212534  celldm(2)=   0.000000  celldm(3)=   0.000000
     celldm(4)=   0.000000  celldm(5)=   0.000000  celldm(6)=   0.000000

     crystal axes: (cart. coord. in units of alat)
               a(1) = (   1.000000   0.000000   0.000000 )  
               a(2) = (   0.000000   1.000000   0.000000 )  
               a(3) = (   0.000000   0.000000   1.000000 )  

     reciprocal axes: (cart. coord. in units 2 pi/alat)
               b(1) = (  1.000000  0.000000  0.000000 )  
               b(2) = (  0.000000  1.000000  0.000000 )  
               b(3) = (  0.000000  0.000000  1.000000 )  


     PseudoPot. # 1 for Si read from file:
     ./pseudo/Si.pbe-n-kjpaw_psl.1.0.0.UPF
     MD5 check sum: c39c59da582df4a0d9f10159256ea34e
     Pseudo is Projector augmented-wave + core cor, Zval =  4.0
     Generated using &quot;atomic&quot; code by A. Dal Corso  v.6.3
     Shape of augmentation charge: PSQ
     Using radial grid of 1141 points,  6 beta functions with: 
                l(1) =   0
                l(2) =   0
                l(3) =   1
                l(4) =   1
                l(5) =   2
                l(6) =   2
     Q(r) pseudized with 0 coefficients 


     atomic species   valence    mass     pseudopotential
        Si             4.00    28.08500     Si( 1.00)

     24 Sym. Ops. (no inversion) found



   Cartesian axes

     site n.     atom                  positions (alat units)
         1           Si  tau(   1) = (   0.2500000   0.7500000   0.2500000  )
         2           Si  tau(   2) = (   0.0000000   0.0000000   0.5000000  )
         3           Si  tau(   3) = (   0.2500000   0.2500000   0.7500000  )
         4           Si  tau(   4) = (   0.0000000   0.5000000   0.0000000  )
         5           Si  tau(   5) = (   0.7500000   0.7500000   0.7500000  )
         6           Si  tau(   6) = (   0.5000000   0.0000000   0.0000000  )
         7           Si  tau(   7) = (   0.7500000   0.2500000   0.2500000  )
         8           Si  tau(   8) = (   0.5000000   0.5000000   0.5000000  )

     number of k points=     4
                       cart. coord. in units 2pi/alat
        k(    1) = (   0.1250000   0.1250000   0.1250000), wk =   0.2500000
        k(    2) = (   0.1250000   0.1250000   0.3750000), wk =   0.7500000
        k(    3) = (   0.1250000   0.3750000   0.3750000), wk =   0.7500000
        k(    4) = (   0.3750000   0.3750000   0.3750000), wk =   0.2500000

     Dense  grid:     2103 G-vectors     FFT dimensions: (  15,  15,  15)

     Estimated max dynamical RAM per process >       9.95 MB
     file Si.pbe-n-kjpaw_psl.1.0.0.UPF: wavefunction(s)  3S 3P renormalized
     Message from routine set_cutoff:
     ecutrho < 4*ecutwfc, are you sure?
     Found symmetry operation: I + (  0.0000  0.5000 -0.5000)
     This is a supercell, fractional translations are disabled
     Message from routine setup:
     using ibrav=0 with symmetry is DISCOURAGED, use correct ibrav instead

     Subspace diagonalization in iterative solution of the eigenvalue problem:
     a serial algorithm will be used


     G-vector sticks info
     --------------------
     sticks:   dense  smooth     PW     G-vecs:    dense   smooth      PW
     Sum         193     193     89                 2103     2103     619

     Using Slab Decomposition



     bravais-lattice index     =            0
     lattice parameter (alat)  =       3.2125  a.u.
     unit-cell volume          =      33.1546 (a.u.)^3
     number of atoms/cell      =            8
     number of atomic types    =            1
     number of electrons       =        32.00
     number of Kohn-Sham states=           16
     kinetic-energy cutoff     =      80.0000  Ry
     charge density cutoff     =     240.0000  Ry
     scf convergence threshold =      1.0E-08
     mixing beta               =       0.7000
     number of iterations used =            8  plain     mixing
     Exchange-correlation= SLA  PW   PBX  PBC
                           (   1   4   3   4   0   0   0)

     celldm(1)=   3.212534  celldm(2)=   0.000000  celldm(3)=   0.000000
     celldm(4)=   0.000000  celldm(5)=   0.000000  celldm(6)=   0.000000

     crystal axes: (cart. coord. in units of alat)
               a(1) = (   1.000000   0.000000   0.000000 )  
               a(2) = (   0.000000   1.000000   0.000000 )  
               a(3) = (   0.000000   0.000000   1.000000 )  

     reciprocal axes: (cart. coord. in units 2 pi/alat)
               b(1) = (  1.000000  0.000000  0.000000 )  
               b(2) = (  0.000000  1.000000  0.000000 )  
               b(3) = (  0.000000  0.000000  1.000000 )  


     PseudoPot. # 1 for Si read from file:
     ./pseudo/Si.pbe-n-kjpaw_psl.1.0.0.UPF
     MD5 check sum: c39c59da582df4a0d9f10159256ea34e
     Pseudo is Projector augmented-wave + core cor, Zval =  4.0
     Generated using &quot;atomic&quot; code by A. Dal Corso  v.6.3
     Shape of augmentation charge: PSQ
     Using radial grid of 1141 points,  6 beta functions with: 
                l(1) =   0
                l(2) =   0
                l(3) =   1
                l(4) =   1
                l(5) =   2
                l(6) =   2
     Q(r) pseudized with 0 coefficients 


     atomic species   valence    mass     pseudopotential
        Si             4.00    28.08500     Si( 1.00)

     24 Sym. Ops. (no inversion) found



   Cartesian axes

     site n.     atom                  positions (alat units)
         1           Si  tau(   1) = (   0.2500000   0.7500000   0.2500000  )
         2           Si  tau(   2) = (   0.0000000   0.0000000   0.5000000  )
         3           Si  tau(   3) = (   0.2500000   0.2500000   0.7500000  )
         4           Si  tau(   4) = (   0.0000000   0.5000000   0.0000000  )
         5           Si  tau(   5) = (   0.7500000   0.7500000   0.7500000  )
         6           Si  tau(   6) = (   0.5000000   0.0000000   0.0000000  )
         7           Si  tau(   7) = (   0.7500000   0.2500000   0.2500000  )
         8           Si  tau(   8) = (   0.5000000   0.5000000   0.5000000  )

     number of k points=     4
                       cart. coord. in units 2pi/alat
        k(    1) = (   0.1250000   0.1250000   0.1250000), wk =   0.2500000
        k(    2) = (   0.1250000   0.1250000   0.3750000), wk =   0.7500000
        k(    3) = (   0.1250000   0.3750000   0.3750000), wk =   0.7500000
        k(    4) = (   0.3750000   0.3750000   0.3750000), wk =   0.2500000

     Dense  grid:     2103 G-vectors     FFT dimensions: (  15,  15,  15)

     Estimated max dynamical RAM per process >       9.95 MB

     Program PWSCF v.6.8 starts on 14Jun2022 at 15:55:38 

     This program is part of the open-source Quantum ESPRESSO suite
     for quantum simulation of materials; please cite
         "P. Giannozzi et al., J. Phys.:Condens. Matter 21 395502 (2009);
         "P. Giannozzi et al., J. Phys.:Condens. Matter 29 465901 (2017);
         "P. Giannozzi et al., J. Chem. Phys. 152 154105 (2020);
          URL http://www.quantum-espresso.org", 
     in publications or presentations arising from this work. More details at
     http://www.quantum-espresso.org/quote

     Parallel version (MPI), running on     1 processors

     MPI processes distributed on     1 nodes
     189447 MiB available memory on the printing compute node when the environment starts

     Reading input from scf_1.7.in

     Current dimensions of program PWSCF are:
     Max number of different atomic species (ntypx) = 10
     Max number of k-points (npk) =  40000
     Max angular momentum in pseudopotentials (lmaxx) =  4

     Program PWSCF v.6.8 starts on 14Jun2022 at 15:55:38 

     This program is part of the open-source Quantum ESPRESSO suite
     for quantum simulation of materials; please cite
         "P. Giannozzi et al., J. Phys.:Condens. Matter 21 395502 (2009);
         "P. Giannozzi et al., J. Phys.:Condens. Matter 29 465901 (2017);
         "P. Giannozzi et al., J. Chem. Phys. 152 154105 (2020);
          URL http://www.quantum-espresso.org", 
     in publications or presentations arising from this work. More details at
     http://www.quantum-espresso.org/quote

     Parallel version (MPI), running on     1 processors

     MPI processes distributed on     1 nodes
     189462 MiB available memory on the printing compute node when the environment starts

     Reading input from scf_1.7.in

     Current dimensions of program PWSCF are:
     Max number of different atomic species (ntypx) = 10
     Max number of k-points (npk) =  40000
     Max angular momentum in pseudopotentials (lmaxx) =  4
     file Si.pbe-n-kjpaw_psl.1.0.0.UPF: wavefunction(s)  3S 3P renormalized
     Message from routine set_cutoff:
     ecutrho < 4*ecutwfc, are you sure?
     Found symmetry operation: I + (  0.0000  0.5000 -0.5000)
     This is a supercell, fractional translations are disabled
     Message from routine setup:
     using ibrav=0 with symmetry is DISCOURAGED, use correct ibrav instead

     Subspace diagonalization in iterative solution of the eigenvalue problem:
     a serial algorithm will be used


     G-vector sticks info
     --------------------
     sticks:   dense  smooth     PW     G-vecs:    dense   smooth      PW
     Sum         193     193     89                 2103     2103     619

     Using Slab Decomposition



     bravais-lattice index     =            0
     lattice parameter (alat)  =       3.2125  a.u.
     unit-cell volume          =      33.1546 (a.u.)^3
     number of atoms/cell      =            8
     number of atomic types    =            1
     number of electrons       =        32.00
     number of Kohn-Sham states=           16
     kinetic-energy cutoff     =      80.0000  Ry
     charge density cutoff     =     240.0000  Ry
     scf convergence threshold =      1.0E-08
     mixing beta               =       0.7000
     number of iterations used =            8  plain     mixing
     Exchange-correlation= SLA  PW   PBX  PBC
                           (   1   4   3   4   0   0   0)

     celldm(1)=   3.212534  celldm(2)=   0.000000  celldm(3)=   0.000000
     celldm(4)=   0.000000  celldm(5)=   0.000000  celldm(6)=   0.000000

     crystal axes: (cart. coord. in units of alat)
               a(1) = (   1.000000   0.000000   0.000000 )  
               a(2) = (   0.000000   1.000000   0.000000 )  
               a(3) = (   0.000000   0.000000   1.000000 )  

     reciprocal axes: (cart. coord. in units 2 pi/alat)
               b(1) = (  1.000000  0.000000  0.000000 )  
               b(2) = (  0.000000  1.000000  0.000000 )  
               b(3) = (  0.000000  0.000000  1.000000 )  


     PseudoPot. # 1 for Si read from file:
     ./pseudo/Si.pbe-n-kjpaw_psl.1.0.0.UPF
     MD5 check sum: c39c59da582df4a0d9f10159256ea34e
     Pseudo is Projector augmented-wave + core cor, Zval =  4.0
     Generated using &quot;atomic&quot; code by A. Dal Corso  v.6.3
     Shape of augmentation charge: PSQ
     Using radial grid of 1141 points,  6 beta functions with: 
                l(1) =   0
                l(2) =   0
                l(3) =   1
                l(4) =   1
                l(5) =   2
                l(6) =   2
     Q(r) pseudized with 0 coefficients 


     atomic species   valence    mass     pseudopotential
        Si             4.00    28.08500     Si( 1.00)

     24 Sym. Ops. (no inversion) found



   Cartesian axes

     site n.     atom                  positions (alat units)
         1           Si  tau(   1) = (   0.2500000   0.7500000   0.2500000  )
         2           Si  tau(   2) = (   0.0000000   0.0000000   0.5000000  )
         3           Si  tau(   3) = (   0.2500000   0.2500000   0.7500000  )
         4           Si  tau(   4) = (   0.0000000   0.5000000   0.0000000  )
         5           Si  tau(   5) = (   0.7500000   0.7500000   0.7500000  )
         6           Si  tau(   6) = (   0.5000000   0.0000000   0.0000000  )
         7           Si  tau(   7) = (   0.7500000   0.2500000   0.2500000  )
         8           Si  tau(   8) = (   0.5000000   0.5000000   0.5000000  )

     number of k points=     4
                       cart. coord. in units 2pi/alat
        k(    1) = (   0.1250000   0.1250000   0.1250000), wk =   0.2500000
        k(    2) = (   0.1250000   0.1250000   0.3750000), wk =   0.7500000
        k(    3) = (   0.1250000   0.3750000   0.3750000), wk =   0.7500000
        k(    4) = (   0.3750000   0.3750000   0.3750000), wk =   0.2500000

     Dense  grid:     2103 G-vectors     FFT dimensions: (  15,  15,  15)

     Estimated max dynamical RAM per process >       9.95 MB
     file Si.pbe-n-kjpaw_psl.1.0.0.UPF: wavefunction(s)  3S 3P renormalized
     Message from routine set_cutoff:
     ecutrho < 4*ecutwfc, are you sure?
     Found symmetry operation: I + (  0.0000  0.5000 -0.5000)
     This is a supercell, fractional translations are disabled
     Message from routine setup:
     using ibrav=0 with symmetry is DISCOURAGED, use correct ibrav instead

     Subspace diagonalization in iterative solution of the eigenvalue problem:
     a serial algorithm will be used


     G-vector sticks info
     --------------------
     sticks:   dense  smooth     PW     G-vecs:    dense   smooth      PW
     Sum         193     193     89                 2103     2103     619

     Using Slab Decomposition



     bravais-lattice index     =            0
     lattice parameter (alat)  =       3.2125  a.u.
     unit-cell volume          =      33.1546 (a.u.)^3
     number of atoms/cell      =            8
     number of atomic types    =            1
     number of electrons       =        32.00
     number of Kohn-Sham states=           16
     kinetic-energy cutoff     =      80.0000  Ry
     charge density cutoff     =     240.0000  Ry
     scf convergence threshold =      1.0E-08
     mixing beta               =       0.7000
     number of iterations used =            8  plain     mixing
     Exchange-correlation= SLA  PW   PBX  PBC
                           (   1   4   3   4   0   0   0)

     celldm(1)=   3.212534  celldm(2)=   0.000000  celldm(3)=   0.000000
     celldm(4)=   0.000000  celldm(5)=   0.000000  celldm(6)=   0.000000

     crystal axes: (cart. coord. in units of alat)
               a(1) = (   1.000000   0.000000   0.000000 )  
               a(2) = (   0.000000   1.000000   0.000000 )  
               a(3) = (   0.000000   0.000000   1.000000 )  

     reciprocal axes: (cart. coord. in units 2 pi/alat)
               b(1) = (  1.000000  0.000000  0.000000 )  
               b(2) = (  0.000000  1.000000  0.000000 )  
               b(3) = (  0.000000  0.000000  1.000000 )  


     PseudoPot. # 1 for Si read from file:
     ./pseudo/Si.pbe-n-kjpaw_psl.1.0.0.UPF
     MD5 check sum: c39c59da582df4a0d9f10159256ea34e
     Pseudo is Projector augmented-wave + core cor, Zval =  4.0
     Generated using &quot;atomic&quot; code by A. Dal Corso  v.6.3
     Shape of augmentation charge: PSQ
     Using radial grid of 1141 points,  6 beta functions with: 
                l(1) =   0
                l(2) =   0
                l(3) =   1
                l(4) =   1
                l(5) =   2
                l(6) =   2
     Q(r) pseudized with 0 coefficients 


     atomic species   valence    mass     pseudopotential
        Si             4.00    28.08500     Si( 1.00)

     24 Sym. Ops. (no inversion) found



   Cartesian axes

     site n.     atom                  positions (alat units)
         1           Si  tau(   1) = (   0.2500000   0.7500000   0.2500000  )
         2           Si  tau(   2) = (   0.0000000   0.0000000   0.5000000  )
         3           Si  tau(   3) = (   0.2500000   0.2500000   0.7500000  )
         4           Si  tau(   4) = (   0.0000000   0.5000000   0.0000000  )
         5           Si  tau(   5) = (   0.7500000   0.7500000   0.7500000  )
         6           Si  tau(   6) = (   0.5000000   0.0000000   0.0000000  )
         7           Si  tau(   7) = (   0.7500000   0.2500000   0.2500000  )
         8           Si  tau(   8) = (   0.5000000   0.5000000   0.5000000  )

     number of k points=     4
                       cart. coord. in units 2pi/alat
        k(    1) = (   0.1250000   0.1250000   0.1250000), wk =   0.2500000
        k(    2) = (   0.1250000   0.1250000   0.3750000), wk =   0.7500000
        k(    3) = (   0.1250000   0.3750000   0.3750000), wk =   0.7500000
        k(    4) = (   0.3750000   0.3750000   0.3750000), wk =   0.2500000

     Dense  grid:     2103 G-vectors     FFT dimensions: (  15,  15,  15)

     Estimated max dynamical RAM per process >       9.95 MB

     Program PWSCF v.6.8 starts on 14Jun2022 at 15:55:38 

     This program is part of the open-source Quantum ESPRESSO suite
     for quantum simulation of materials; please cite
         "P. Giannozzi et al., J. Phys.:Condens. Matter 21 395502 (2009);
         "P. Giannozzi et al., J. Phys.:Condens. Matter 29 465901 (2017);
         "P. Giannozzi et al., J. Chem. Phys. 152 154105 (2020);
          URL http://www.quantum-espresso.org", 
     in publications or presentations arising from this work. More details at
     http://www.quantum-espresso.org/quote

     Parallel version (MPI), running on     1 processors

     MPI processes distributed on     1 nodes
     189462 MiB available memory on the printing compute node when the environment starts

     Reading input from scf_1.7.in

     Current dimensions of program PWSCF are:
     Max number of different atomic species (ntypx) = 10
     Max number of k-points (npk) =  40000
     Max angular momentum in pseudopotentials (lmaxx) =  4
     file Si.pbe-n-kjpaw_psl.1.0.0.UPF: wavefunction(s)  3S 3P renormalized
     Message from routine set_cutoff:
     ecutrho < 4*ecutwfc, are you sure?
     Found symmetry operation: I + (  0.0000  0.5000 -0.5000)
     This is a supercell, fractional translations are disabled
     Message from routine setup:
     using ibrav=0 with symmetry is DISCOURAGED, use correct ibrav instead

     Subspace diagonalization in iterative solution of the eigenvalue problem:
     a serial algorithm will be used


     G-vector sticks info
     --------------------
     sticks:   dense  smooth     PW     G-vecs:    dense   smooth      PW
     Sum         193     193     89                 2103     2103     619

     Using Slab Decomposition



     bravais-lattice index     =            0
     lattice parameter (alat)  =       3.2125  a.u.
     unit-cell volume          =      33.1546 (a.u.)^3
     number of atoms/cell      =            8
     number of atomic types    =            1
     number of electrons       =        32.00
     number of Kohn-Sham states=           16
     kinetic-energy cutoff     =      80.0000  Ry
     charge density cutoff     =     240.0000  Ry
     scf convergence threshold =      1.0E-08
     mixing beta               =       0.7000
     number of iterations used =            8  plain     mixing
     Exchange-correlation= SLA  PW   PBX  PBC
                           (   1   4   3   4   0   0   0)

     celldm(1)=   3.212534  celldm(2)=   0.000000  celldm(3)=   0.000000
     celldm(4)=   0.000000  celldm(5)=   0.000000  celldm(6)=   0.000000

     crystal axes: (cart. coord. in units of alat)
               a(1) = (   1.000000   0.000000   0.000000 )  
               a(2) = (   0.000000   1.000000   0.000000 )  
               a(3) = (   0.000000   0.000000   1.000000 )  

     reciprocal axes: (cart. coord. in units 2 pi/alat)
               b(1) = (  1.000000  0.000000  0.000000 )  
               b(2) = (  0.000000  1.000000  0.000000 )  
               b(3) = (  0.000000  0.000000  1.000000 )  


     PseudoPot. # 1 for Si read from file:
     ./pseudo/Si.pbe-n-kjpaw_psl.1.0.0.UPF
     MD5 check sum: c39c59da582df4a0d9f10159256ea34e
     Pseudo is Projector augmented-wave + core cor, Zval =  4.0
     Generated using &quot;atomic&quot; code by A. Dal Corso  v.6.3
     Shape of augmentation charge: PSQ
     Using radial grid of 1141 points,  6 beta functions with: 
                l(1) =   0
                l(2) =   0
                l(3) =   1
                l(4) =   1
                l(5) =   2
                l(6) =   2
     Q(r) pseudized with 0 coefficients 


     atomic species   valence    mass     pseudopotential
        Si             4.00    28.08500     Si( 1.00)

     24 Sym. Ops. (no inversion) found



   Cartesian axes

     site n.     atom                  positions (alat units)
         1           Si  tau(   1) = (   0.2500000   0.7500000   0.2500000  )
         2           Si  tau(   2) = (   0.0000000   0.0000000   0.5000000  )
         3           Si  tau(   3) = (   0.2500000   0.2500000   0.7500000  )
         4           Si  tau(   4) = (   0.0000000   0.5000000   0.0000000  )
         5           Si  tau(   5) = (   0.7500000   0.7500000   0.7500000  )
         6           Si  tau(   6) = (   0.5000000   0.0000000   0.0000000  )
         7           Si  tau(   7) = (   0.7500000   0.2500000   0.2500000  )
         8           Si  tau(   8) = (   0.5000000   0.5000000   0.5000000  )

     number of k points=     4
                       cart. coord. in units 2pi/alat
        k(    1) = (   0.1250000   0.1250000   0.1250000), wk =   0.2500000
        k(    2) = (   0.1250000   0.1250000   0.3750000), wk =   0.7500000
        k(    3) = (   0.1250000   0.3750000   0.3750000), wk =   0.7500000
        k(    4) = (   0.3750000   0.3750000   0.3750000), wk =   0.2500000

     Dense  grid:     2103 G-vectors     FFT dimensions: (  15,  15,  15)

     Estimated max dynamical RAM per process >       9.95 MB
     file Si.pbe-n-kjpaw_psl.1.0.0.UPF: wavefunction(s)  3S 3P renormalized
     Message from routine set_cutoff:
     ecutrho < 4*ecutwfc, are you sure?
     Found symmetry operation: I + (  0.0000  0.5000 -0.5000)
     This is a supercell, fractional translations are disabled
     Message from routine setup:
     using ibrav=0 with symmetry is DISCOURAGED, use correct ibrav instead

     Subspace diagonalization in iterative solution of the eigenvalue problem:
     a serial algorithm will be used


     G-vector sticks info
     --------------------
     sticks:   dense  smooth     PW     G-vecs:    dense   smooth      PW
     Sum         193     193     89                 2103     2103     619

     Using Slab Decomposition



     bravais-lattice index     =            0
     lattice parameter (alat)  =       3.2125  a.u.
     unit-cell volume          =      33.1546 (a.u.)^3
     number of atoms/cell      =            8
     number of atomic types    =            1
     number of electrons       =        32.00
     number of Kohn-Sham states=           16
     kinetic-energy cutoff     =      80.0000  Ry
     charge density cutoff     =     240.0000  Ry
     scf convergence threshold =      1.0E-08
     mixing beta               =       0.7000
     number of iterations used =            8  plain     mixing
     Exchange-correlation= SLA  PW   PBX  PBC
                           (   1   4   3   4   0   0   0)

     celldm(1)=   3.212534  celldm(2)=   0.000000  celldm(3)=   0.000000
     celldm(4)=   0.000000  celldm(5)=   0.000000  celldm(6)=   0.000000

     crystal axes: (cart. coord. in units of alat)
               a(1) = (   1.000000   0.000000   0.000000 )  
               a(2) = (   0.000000   1.000000   0.000000 )  
               a(3) = (   0.000000   0.000000   1.000000 )  

     reciprocal axes: (cart. coord. in units 2 pi/alat)
               b(1) = (  1.000000  0.000000  0.000000 )  
               b(2) = (  0.000000  1.000000  0.000000 )  
               b(3) = (  0.000000  0.000000  1.000000 )  


     PseudoPot. # 1 for Si read from file:
     ./pseudo/Si.pbe-n-kjpaw_psl.1.0.0.UPF
     MD5 check sum: c39c59da582df4a0d9f10159256ea34e
     Pseudo is Projector augmented-wave + core cor, Zval =  4.0
     Generated using &quot;atomic&quot; code by A. Dal Corso  v.6.3
     Shape of augmentation charge: PSQ
     Using radial grid of 1141 points,  6 beta functions with: 
                l(1) =   0
                l(2) =   0
                l(3) =   1
                l(4) =   1
                l(5) =   2
                l(6) =   2
     Q(r) pseudized with 0 coefficients 


     atomic species   valence    mass     pseudopotential
        Si             4.00    28.08500     Si( 1.00)

     24 Sym. Ops. (no inversion) found



   Cartesian axes

     site n.     atom                  positions (alat units)
         1           Si  tau(   1) = (   0.2500000   0.7500000   0.2500000  )
         2           Si  tau(   2) = (   0.0000000   0.0000000   0.5000000  )
         3           Si  tau(   3) = (   0.2500000   0.2500000   0.7500000  )
         4           Si  tau(   4) = (   0.0000000   0.5000000   0.0000000  )
         5           Si  tau(   5) = (   0.7500000   0.7500000   0.7500000  )
         6           Si  tau(   6) = (   0.5000000   0.0000000   0.0000000  )
         7           Si  tau(   7) = (   0.7500000   0.2500000   0.2500000  )
         8           Si  tau(   8) = (   0.5000000   0.5000000   0.5000000  )

     number of k points=     4
                       cart. coord. in units 2pi/alat
        k(    1) = (   0.1250000   0.1250000   0.1250000), wk =   0.2500000
        k(    2) = (   0.1250000   0.1250000   0.3750000), wk =   0.7500000
        k(    3) = (   0.1250000   0.3750000   0.3750000), wk =   0.7500000
        k(    4) = (   0.3750000   0.3750000   0.3750000), wk =   0.2500000

     Dense  grid:     2103 G-vectors     FFT dimensions: (  15,  15,  15)

     Estimated max dynamical RAM per process >       9.95 MB
     file Si.pbe-n-kjpaw_psl.1.0.0.UPF: wavefunction(s)  3S 3P renormalized
     Message from routine set_cutoff:
     ecutrho < 4*ecutwfc, are you sure?
     Found symmetry operation: I + (  0.0000  0.5000 -0.5000)
     This is a supercell, fractional translations are disabled
     Message from routine setup:
     using ibrav=0 with symmetry is DISCOURAGED, use correct ibrav instead

     Subspace diagonalization in iterative solution of the eigenvalue problem:
     a serial algorithm will be used


     G-vector sticks info
     --------------------
     sticks:   dense  smooth     PW     G-vecs:    dense   smooth      PW
     Sum         193     193     89                 2103     2103     619

     Using Slab Decomposition



     bravais-lattice index     =            0
     lattice parameter (alat)  =       3.2125  a.u.
     unit-cell volume          =      33.1546 (a.u.)^3
     number of atoms/cell      =            8
     number of atomic types    =            1
     number of electrons       =        32.00
     number of Kohn-Sham states=           16
     kinetic-energy cutoff     =      80.0000  Ry
     charge density cutoff     =     240.0000  Ry
     scf convergence threshold =      1.0E-08
     mixing beta               =       0.7000
     number of iterations used =            8  plain     mixing
     Exchange-correlation= SLA  PW   PBX  PBC
                           (   1   4   3   4   0   0   0)

     celldm(1)=   3.212534  celldm(2)=   0.000000  celldm(3)=   0.000000
     celldm(4)=   0.000000  celldm(5)=   0.000000  celldm(6)=   0.000000

     crystal axes: (cart. coord. in units of alat)
               a(1) = (   1.000000   0.000000   0.000000 )  
               a(2) = (   0.000000   1.000000   0.000000 )  
               a(3) = (   0.000000   0.000000   1.000000 )  

     reciprocal axes: (cart. coord. in units 2 pi/alat)
               b(1) = (  1.000000  0.000000  0.000000 )  
               b(2) = (  0.000000  1.000000  0.000000 )  
               b(3) = (  0.000000  0.000000  1.000000 )  


     PseudoPot. # 1 for Si read from file:
     ./pseudo/Si.pbe-n-kjpaw_psl.1.0.0.UPF
     MD5 check sum: c39c59da582df4a0d9f10159256ea34e
     Pseudo is Projector augmented-wave + core cor, Zval =  4.0
     Generated using &quot;atomic&quot; code by A. Dal Corso  v.6.3
     Shape of augmentation charge: PSQ
     Using radial grid of 1141 points,  6 beta functions with: 
                l(1) =   0
                l(2) =   0
                l(3) =   1
                l(4) =   1
                l(5) =   2
                l(6) =   2
     Q(r) pseudized with 0 coefficients 


     atomic species   valence    mass     pseudopotential
        Si             4.00    28.08500     Si( 1.00)

     24 Sym. Ops. (no inversion) found



   Cartesian axes

     site n.     atom                  positions (alat units)
         1           Si  tau(   1) = (   0.2500000   0.7500000   0.2500000  )
         2           Si  tau(   2) = (   0.0000000   0.0000000   0.5000000  )
         3           Si  tau(   3) = (   0.2500000   0.2500000   0.7500000  )
         4           Si  tau(   4) = (   0.0000000   0.5000000   0.0000000  )
         5           Si  tau(   5) = (   0.7500000   0.7500000   0.7500000  )
         6           Si  tau(   6) = (   0.5000000   0.0000000   0.0000000  )
         7           Si  tau(   7) = (   0.7500000   0.2500000   0.2500000  )
         8           Si  tau(   8) = (   0.5000000   0.5000000   0.5000000  )

     number of k points=     4
                       cart. coord. in units 2pi/alat
        k(    1) = (   0.1250000   0.1250000   0.1250000), wk =   0.2500000
        k(    2) = (   0.1250000   0.1250000   0.3750000), wk =   0.7500000
        k(    3) = (   0.1250000   0.3750000   0.3750000), wk =   0.7500000
        k(    4) = (   0.3750000   0.3750000   0.3750000), wk =   0.2500000

     Dense  grid:     2103 G-vectors     FFT dimensions: (  15,  15,  15)

     Estimated max dynamical RAM per process >       9.95 MB
     file Si.pbe-n-kjpaw_psl.1.0.0.UPF: wavefunction(s)  3S 3P renormalized
     Message from routine set_cutoff:
     ecutrho < 4*ecutwfc, are you sure?
     Found symmetry operation: I + (  0.0000  0.5000 -0.5000)
     This is a supercell, fractional translations are disabled
     Message from routine setup:
     using ibrav=0 with symmetry is DISCOURAGED, use correct ibrav instead

     Subspace diagonalization in iterative solution of the eigenvalue problem:
     a serial algorithm will be used


     G-vector sticks info
     --------------------
     sticks:   dense  smooth     PW     G-vecs:    dense   smooth      PW
     Sum         193     193     89                 2103     2103     619

     Using Slab Decomposition



     bravais-lattice index     =            0
     lattice parameter (alat)  =       3.2125  a.u.
     unit-cell volume          =      33.1546 (a.u.)^3
     number of atoms/cell      =            8
     number of atomic types    =            1
     number of electrons       =        32.00
     number of Kohn-Sham states=           16
     kinetic-energy cutoff     =      80.0000  Ry
     charge density cutoff     =     240.0000  Ry
     scf convergence threshold =      1.0E-08
     mixing beta               =       0.7000
     number of iterations used =            8  plain     mixing
     Exchange-correlation= SLA  PW   PBX  PBC
                           (   1   4   3   4   0   0   0)

     celldm(1)=   3.212534  celldm(2)=   0.000000  celldm(3)=   0.000000
     celldm(4)=   0.000000  celldm(5)=   0.000000  celldm(6)=   0.000000

     crystal axes: (cart. coord. in units of alat)
               a(1) = (   1.000000   0.000000   0.000000 )  
               a(2) = (   0.000000   1.000000   0.000000 )  
               a(3) = (   0.000000   0.000000   1.000000 )  

     reciprocal axes: (cart. coord. in units 2 pi/alat)
               b(1) = (  1.000000  0.000000  0.000000 )  
               b(2) = (  0.000000  1.000000  0.000000 )  
               b(3) = (  0.000000  0.000000  1.000000 )  


     PseudoPot. # 1 for Si read from file:
     ./pseudo/Si.pbe-n-kjpaw_psl.1.0.0.UPF
     MD5 check sum: c39c59da582df4a0d9f10159256ea34e
     Pseudo is Projector augmented-wave + core cor, Zval =  4.0
     Generated using &quot;atomic&quot; code by A. Dal Corso  v.6.3
     Shape of augmentation charge: PSQ
     Using radial grid of 1141 points,  6 beta functions with: 
                l(1) =   0
                l(2) =   0
                l(3) =   1
                l(4) =   1
                l(5) =   2
                l(6) =   2
     Q(r) pseudized with 0 coefficients 


     atomic species   valence    mass     pseudopotential
        Si             4.00    28.08500     Si( 1.00)

     24 Sym. Ops. (no inversion) found



   Cartesian axes

     site n.     atom                  positions (alat units)
         1           Si  tau(   1) = (   0.2500000   0.7500000   0.2500000  )
         2           Si  tau(   2) = (   0.0000000   0.0000000   0.5000000  )
         3           Si  tau(   3) = (   0.2500000   0.2500000   0.7500000  )
         4           Si  tau(   4) = (   0.0000000   0.5000000   0.0000000  )
         5           Si  tau(   5) = (   0.7500000   0.7500000   0.7500000  )
         6           Si  tau(   6) = (   0.5000000   0.0000000   0.0000000  )
         7           Si  tau(   7) = (   0.7500000   0.2500000   0.2500000  )
         8           Si  tau(   8) = (   0.5000000   0.5000000   0.5000000  )

     number of k points=     4
                       cart. coord. in units 2pi/alat
        k(    1) = (   0.1250000   0.1250000   0.1250000), wk =   0.2500000
        k(    2) = (   0.1250000   0.1250000   0.3750000), wk =   0.7500000
        k(    3) = (   0.1250000   0.3750000   0.3750000), wk =   0.7500000
        k(    4) = (   0.3750000   0.3750000   0.3750000), wk =   0.2500000

     Dense  grid:     2103 G-vectors     FFT dimensions: (  15,  15,  15)

     Estimated max dynamical RAM per process >       9.95 MB
     file Si.pbe-n-kjpaw_psl.1.0.0.UPF: wavefunction(s)  3S 3P renormalized
     Message from routine set_cutoff:
     ecutrho < 4*ecutwfc, are you sure?
     Found symmetry operation: I + (  0.0000  0.5000 -0.5000)
     This is a supercell, fractional translations are disabled
     Message from routine setup:
     using ibrav=0 with symmetry is DISCOURAGED, use correct ibrav instead

     Subspace diagonalization in iterative solution of the eigenvalue problem:
     a serial algorithm will be used


     G-vector sticks info
     --------------------
     sticks:   dense  smooth     PW     G-vecs:    dense   smooth      PW
     Sum         193     193     89                 2103     2103     619

     Using Slab Decomposition



     bravais-lattice index     =            0
     lattice parameter (alat)  =       3.2125  a.u.
     unit-cell volume          =      33.1546 (a.u.)^3
     number of atoms/cell      =            8
     number of atomic types    =            1
     number of electrons       =        32.00
     number of Kohn-Sham states=           16
     kinetic-energy cutoff     =      80.0000  Ry
     charge density cutoff     =     240.0000  Ry
     scf convergence threshold =      1.0E-08
     mixing beta               =       0.7000
     number of iterations used =            8  plain     mixing
     Exchange-correlation= SLA  PW   PBX  PBC
                           (   1   4   3   4   0   0   0)

     celldm(1)=   3.212534  celldm(2)=   0.000000  celldm(3)=   0.000000
     celldm(4)=   0.000000  celldm(5)=   0.000000  celldm(6)=   0.000000

     crystal axes: (cart. coord. in units of alat)
               a(1) = (   1.000000   0.000000   0.000000 )  
               a(2) = (   0.000000   1.000000   0.000000 )  
               a(3) = (   0.000000   0.000000   1.000000 )  

     reciprocal axes: (cart. coord. in units 2 pi/alat)
               b(1) = (  1.000000  0.000000  0.000000 )  
               b(2) = (  0.000000  1.000000  0.000000 )  
               b(3) = (  0.000000  0.000000  1.000000 )  


     PseudoPot. # 1 for Si read from file:
     ./pseudo/Si.pbe-n-kjpaw_psl.1.0.0.UPF
     MD5 check sum: c39c59da582df4a0d9f10159256ea34e
     Pseudo is Projector augmented-wave + core cor, Zval =  4.0
     Generated using &quot;atomic&quot; code by A. Dal Corso  v.6.3
     Shape of augmentation charge: PSQ
     Using radial grid of 1141 points,  6 beta functions with: 
                l(1) =   0
                l(2) =   0
                l(3) =   1
                l(4) =   1
                l(5) =   2
                l(6) =   2
     Q(r) pseudized with 0 coefficients 


     atomic species   valence    mass     pseudopotential
        Si             4.00    28.08500     Si( 1.00)

     24 Sym. Ops. (no inversion) found



   Cartesian axes

     site n.     atom                  positions (alat units)
         1           Si  tau(   1) = (   0.2500000   0.7500000   0.2500000  )
         2           Si  tau(   2) = (   0.0000000   0.0000000   0.5000000  )
         3           Si  tau(   3) = (   0.2500000   0.2500000   0.7500000  )
         4           Si  tau(   4) = (   0.0000000   0.5000000   0.0000000  )
         5           Si  tau(   5) = (   0.7500000   0.7500000   0.7500000  )
         6           Si  tau(   6) = (   0.5000000   0.0000000   0.0000000  )
         7           Si  tau(   7) = (   0.7500000   0.2500000   0.2500000  )
         8           Si  tau(   8) = (   0.5000000   0.5000000   0.5000000  )

     number of k points=     4
                       cart. coord. in units 2pi/alat
        k(    1) = (   0.1250000   0.1250000   0.1250000), wk =   0.2500000
        k(    2) = (   0.1250000   0.1250000   0.3750000), wk =   0.7500000
        k(    3) = (   0.1250000   0.3750000   0.3750000), wk =   0.7500000
        k(    4) = (   0.3750000   0.3750000   0.3750000), wk =   0.2500000

     Dense  grid:     2103 G-vectors     FFT dimensions: (  15,  15,  15)

     Estimated max dynamical RAM per process >       9.95 MB
     file Si.pbe-n-kjpaw_psl.1.0.0.UPF: wavefunction(s)  3S 3P renormalized
     Message from routine set_cutoff:
     ecutrho < 4*ecutwfc, are you sure?
     Found symmetry operation: I + (  0.0000  0.5000 -0.5000)
     This is a supercell, fractional translations are disabled
     Message from routine setup:
     using ibrav=0 with symmetry is DISCOURAGED, use correct ibrav instead

     Subspace diagonalization in iterative solution of the eigenvalue problem:
     a serial algorithm will be used


     G-vector sticks info
     --------------------
     sticks:   dense  smooth     PW     G-vecs:    dense   smooth      PW
     Sum         193     193     89                 2103     2103     619

     Using Slab Decomposition



     bravais-lattice index     =            0
     lattice parameter (alat)  =       3.2125  a.u.
     unit-cell volume          =      33.1546 (a.u.)^3
     number of atoms/cell      =            8
     number of atomic types    =            1
     number of electrons       =        32.00
     number of Kohn-Sham states=           16
     kinetic-energy cutoff     =      80.0000  Ry
     charge density cutoff     =     240.0000  Ry
     scf convergence threshold =      1.0E-08
     mixing beta               =       0.7000
     number of iterations used =            8  plain     mixing
     Exchange-correlation= SLA  PW   PBX  PBC
                           (   1   4   3   4   0   0   0)

     celldm(1)=   3.212534  celldm(2)=   0.000000  celldm(3)=   0.000000
     celldm(4)=   0.000000  celldm(5)=   0.000000  celldm(6)=   0.000000

     crystal axes: (cart. coord. in units of alat)
               a(1) = (   1.000000   0.000000   0.000000 )  
               a(2) = (   0.000000   1.000000   0.000000 )  
               a(3) = (   0.000000   0.000000   1.000000 )  

     reciprocal axes: (cart. coord. in units 2 pi/alat)
               b(1) = (  1.000000  0.000000  0.000000 )  
               b(2) = (  0.000000  1.000000  0.000000 )  
               b(3) = (  0.000000  0.000000  1.000000 )  


     PseudoPot. # 1 for Si read from file:
     ./pseudo/Si.pbe-n-kjpaw_psl.1.0.0.UPF
     MD5 check sum: c39c59da582df4a0d9f10159256ea34e
     Pseudo is Projector augmented-wave + core cor, Zval =  4.0
     Generated using &quot;atomic&quot; code by A. Dal Corso  v.6.3
     Shape of augmentation charge: PSQ
     Using radial grid of 1141 points,  6 beta functions with: 
                l(1) =   0
                l(2) =   0
                l(3) =   1
                l(4) =   1
                l(5) =   2
                l(6) =   2
     Q(r) pseudized with 0 coefficients 


     atomic species   valence    mass     pseudopotential
        Si             4.00    28.08500     Si( 1.00)

     24 Sym. Ops. (no inversion) found



   Cartesian axes

     site n.     atom                  positions (alat units)
         1           Si  tau(   1) = (   0.2500000   0.7500000   0.2500000  )
         2           Si  tau(   2) = (   0.0000000   0.0000000   0.5000000  )
         3           Si  tau(   3) = (   0.2500000   0.2500000   0.7500000  )
         4           Si  tau(   4) = (   0.0000000   0.5000000   0.0000000  )
         5           Si  tau(   5) = (   0.7500000   0.7500000   0.7500000  )
         6           Si  tau(   6) = (   0.5000000   0.0000000   0.0000000  )
         7           Si  tau(   7) = (   0.7500000   0.2500000   0.2500000  )
         8           Si  tau(   8) = (   0.5000000   0.5000000   0.5000000  )

     number of k points=     4
                       cart. coord. in units 2pi/alat
        k(    1) = (   0.1250000   0.1250000   0.1250000), wk =   0.2500000
        k(    2) = (   0.1250000   0.1250000   0.3750000), wk =   0.7500000
        k(    3) = (   0.1250000   0.3750000   0.3750000), wk =   0.7500000
        k(    4) = (   0.3750000   0.3750000   0.3750000), wk =   0.2500000

     Dense  grid:     2103 G-vectors     FFT dimensions: (  15,  15,  15)

     Estimated max dynamical RAM per process >       9.95 MB
     file Si.pbe-n-kjpaw_psl.1.0.0.UPF: wavefunction(s)  3S 3P renormalized
     Message from routine set_cutoff:
     ecutrho < 4*ecutwfc, are you sure?
     Found symmetry operation: I + (  0.0000  0.5000 -0.5000)
     This is a supercell, fractional translations are disabled
     Message from routine setup:
     using ibrav=0 with symmetry is DISCOURAGED, use correct ibrav instead

     Subspace diagonalization in iterative solution of the eigenvalue problem:
     a serial algorithm will be used


     G-vector sticks info
     --------------------
     sticks:   dense  smooth     PW     G-vecs:    dense   smooth      PW
     Sum         193     193     89                 2103     2103     619

     Using Slab Decomposition



     bravais-lattice index     =            0
     lattice parameter (alat)  =       3.2125  a.u.
     unit-cell volume          =      33.1546 (a.u.)^3
     number of atoms/cell      =            8
     number of atomic types    =            1
     number of electrons       =        32.00
     number of Kohn-Sham states=           16
     kinetic-energy cutoff     =      80.0000  Ry
     charge density cutoff     =     240.0000  Ry
     scf convergence threshold =      1.0E-08
     mixing beta               =       0.7000
     number of iterations used =            8  plain     mixing
     Exchange-correlation= SLA  PW   PBX  PBC
                           (   1   4   3   4   0   0   0)

     celldm(1)=   3.212534  celldm(2)=   0.000000  celldm(3)=   0.000000
     celldm(4)=   0.000000  celldm(5)=   0.000000  celldm(6)=   0.000000

     crystal axes: (cart. coord. in units of alat)
               a(1) = (   1.000000   0.000000   0.000000 )  
               a(2) = (   0.000000   1.000000   0.000000 )  
               a(3) = (   0.000000   0.000000   1.000000 )  

     reciprocal axes: (cart. coord. in units 2 pi/alat)
               b(1) = (  1.000000  0.000000  0.000000 )  
               b(2) = (  0.000000  1.000000  0.000000 )  
               b(3) = (  0.000000  0.000000  1.000000 )  


     PseudoPot. # 1 for Si read from file:
     ./pseudo/Si.pbe-n-kjpaw_psl.1.0.0.UPF
     MD5 check sum: c39c59da582df4a0d9f10159256ea34e
     Pseudo is Projector augmented-wave + core cor, Zval =  4.0
     Generated using &quot;atomic&quot; code by A. Dal Corso  v.6.3
     Shape of augmentation charge: PSQ
     Using radial grid of 1141 points,  6 beta functions with: 
                l(1) =   0
                l(2) =   0
                l(3) =   1
                l(4) =   1
                l(5) =   2
                l(6) =   2
     Q(r) pseudized with 0 coefficients 


     atomic species   valence    mass     pseudopotential
        Si             4.00    28.08500     Si( 1.00)

     24 Sym. Ops. (no inversion) found



   Cartesian axes

     site n.     atom                  positions (alat units)
         1           Si  tau(   1) = (   0.2500000   0.7500000   0.2500000  )
         2           Si  tau(   2) = (   0.0000000   0.0000000   0.5000000  )
         3           Si  tau(   3) = (   0.2500000   0.2500000   0.7500000  )
         4           Si  tau(   4) = (   0.0000000   0.5000000   0.0000000  )
         5           Si  tau(   5) = (   0.7500000   0.7500000   0.7500000  )
         6           Si  tau(   6) = (   0.5000000   0.0000000   0.0000000  )
         7           Si  tau(   7) = (   0.7500000   0.2500000   0.2500000  )
         8           Si  tau(   8) = (   0.5000000   0.5000000   0.5000000  )

     number of k points=     4
                       cart. coord. in units 2pi/alat
        k(    1) = (   0.1250000   0.1250000   0.1250000), wk =   0.2500000
        k(    2) = (   0.1250000   0.1250000   0.3750000), wk =   0.7500000
        k(    3) = (   0.1250000   0.3750000   0.3750000), wk =   0.7500000
        k(    4) = (   0.3750000   0.3750000   0.3750000), wk =   0.2500000

     Dense  grid:     2103 G-vectors     FFT dimensions: (  15,  15,  15)

     Estimated max dynamical RAM per process >       9.95 MB
     file Si.pbe-n-kjpaw_psl.1.0.0.UPF: wavefunction(s)  3S 3P renormalized
     Message from routine set_cutoff:
     ecutrho < 4*ecutwfc, are you sure?
     file Si.pbe-n-kjpaw_psl.1.0.0.UPF: wavefunction(s)  3S 3P renormalized
     Message from routine set_cutoff:
     ecutrho < 4*ecutwfc, are you sure?
     Found symmetry operation: I + (  0.0000  0.5000 -0.5000)
     This is a supercell, fractional translations are disabled
     Message from routine setup:
     using ibrav=0 with symmetry is DISCOURAGED, use correct ibrav instead

     Subspace diagonalization in iterative solution of the eigenvalue problem:
     a serial algorithm will be used


     G-vector sticks info
     --------------------
     sticks:   dense  smooth     PW     G-vecs:    dense   smooth      PW
     Sum         193     193     89                 2103     2103     619

     Using Slab Decomposition



     bravais-lattice index     =            0
     lattice parameter (alat)  =       3.2125  a.u.
     unit-cell volume          =      33.1546 (a.u.)^3
     number of atoms/cell      =            8
     number of atomic types    =            1
     number of electrons       =        32.00
     number of Kohn-Sham states=           16
     kinetic-energy cutoff     =      80.0000  Ry
     charge density cutoff     =     240.0000  Ry
     scf convergence threshold =      1.0E-08
     mixing beta               =       0.7000
     number of iterations used =            8  plain     mixing
     Exchange-correlation= SLA  PW   PBX  PBC
                           (   1   4   3   4   0   0   0)

     celldm(1)=   3.212534  celldm(2)=   0.000000  celldm(3)=   0.000000
     celldm(4)=   0.000000  celldm(5)=   0.000000  celldm(6)=   0.000000

     crystal axes: (cart. coord. in units of alat)
               a(1) = (   1.000000   0.000000   0.000000 )  
               a(2) = (   0.000000   1.000000   0.000000 )  
               a(3) = (   0.000000   0.000000   1.000000 )  

     reciprocal axes: (cart. coord. in units 2 pi/alat)
               b(1) = (  1.000000  0.000000  0.000000 )  
               b(2) = (  0.000000  1.000000  0.000000 )  
               b(3) = (  0.000000  0.000000  1.000000 )  


     PseudoPot. # 1 for Si read from file:
     ./pseudo/Si.pbe-n-kjpaw_psl.1.0.0.UPF
     MD5 check sum: c39c59da582df4a0d9f10159256ea34e
     Pseudo is Projector augmented-wave + core cor, Zval =  4.0
     Generated using &quot;atomic&quot; code by A. Dal Corso  v.6.3
     Shape of augmentation charge: PSQ
     Using radial grid of 1141 points,  6 beta functions with: 
                l(1) =   0
                l(2) =   0
                l(3) =   1
                l(4) =   1
                l(5) =   2
                l(6) =   2
     Q(r) pseudized with 0 coefficients 


     atomic species   valence    mass     pseudopotential
        Si             4.00    28.08500     Si( 1.00)

     24 Sym. Ops. (no inversion) found



   Cartesian axes

     site n.     atom                  positions (alat units)
         1           Si  tau(   1) = (   0.2500000   0.7500000   0.2500000  )
         2           Si  tau(   2) = (   0.0000000   0.0000000   0.5000000  )
         3           Si  tau(   3) = (   0.2500000   0.2500000   0.7500000  )
         4           Si  tau(   4) = (   0.0000000   0.5000000   0.0000000  )
         5           Si  tau(   5) = (   0.7500000   0.7500000   0.7500000  )
         6           Si  tau(   6) = (   0.5000000   0.0000000   0.0000000  )
         7           Si  tau(   7) = (   0.7500000   0.2500000   0.2500000  )
         8           Si  tau(   8) = (   0.5000000   0.5000000   0.5000000  )

     number of k points=     4
                       cart. coord. in units 2pi/alat
        k(    1) = (   0.1250000   0.1250000   0.1250000), wk =   0.2500000
        k(    2) = (   0.1250000   0.1250000   0.3750000), wk =   0.7500000
        k(    3) = (   0.1250000   0.3750000   0.3750000), wk =   0.7500000
        k(    4) = (   0.3750000   0.3750000   0.3750000), wk =   0.2500000

     Dense  grid:     2103 G-vectors     FFT dimensions: (  15,  15,  15)

     Estimated max dynamical RAM per process >       9.95 MB
     file Si.pbe-n-kjpaw_psl.1.0.0.UPF: wavefunction(s)  3S 3P renormalized
     Message from routine set_cutoff:
     ecutrho < 4*ecutwfc, are you sure?
     Found symmetry operation: I + (  0.0000  0.5000 -0.5000)
     This is a supercell, fractional translations are disabled
     Message from routine setup:
     using ibrav=0 with symmetry is DISCOURAGED, use correct ibrav instead

     Subspace diagonalization in iterative solution of the eigenvalue problem:
     a serial algorithm will be used


     G-vector sticks info
     --------------------
     sticks:   dense  smooth     PW     G-vecs:    dense   smooth      PW
     Sum         193     193     89                 2103     2103     619

     Using Slab Decomposition



     bravais-lattice index     =            0
     lattice parameter (alat)  =       3.2125  a.u.
     unit-cell volume          =      33.1546 (a.u.)^3
     number of atoms/cell      =            8
     number of atomic types    =            1
     number of electrons       =        32.00
     number of Kohn-Sham states=           16
     kinetic-energy cutoff     =      80.0000  Ry
     charge density cutoff     =     240.0000  Ry
     scf convergence threshold =      1.0E-08
     mixing beta               =       0.7000
     number of iterations used =            8  plain     mixing
     Exchange-correlation= SLA  PW   PBX  PBC
                           (   1   4   3   4   0   0   0)

     celldm(1)=   3.212534  celldm(2)=   0.000000  celldm(3)=   0.000000
     celldm(4)=   0.000000  celldm(5)=   0.000000  celldm(6)=   0.000000

     crystal axes: (cart. coord. in units of alat)
               a(1) = (   1.000000   0.000000   0.000000 )  
               a(2) = (   0.000000   1.000000   0.000000 )  
               a(3) = (   0.000000   0.000000   1.000000 )  

     reciprocal axes: (cart. coord. in units 2 pi/alat)
               b(1) = (  1.000000  0.000000  0.000000 )  
               b(2) = (  0.000000  1.000000  0.000000 )  
               b(3) = (  0.000000  0.000000  1.000000 )  


     PseudoPot. # 1 for Si read from file:
     ./pseudo/Si.pbe-n-kjpaw_psl.1.0.0.UPF
     MD5 check sum: c39c59da582df4a0d9f10159256ea34e
     Pseudo is Projector augmented-wave + core cor, Zval =  4.0
     Generated using &quot;atomic&quot; code by A. Dal Corso  v.6.3
     Shape of augmentation charge: PSQ
     Using radial grid of 1141 points,  6 beta functions with: 
                l(1) =   0
                l(2) =   0
                l(3) =   1
                l(4) =   1
                l(5) =   2
                l(6) =   2
     Q(r) pseudized with 0 coefficients 


     atomic species   valence    mass     pseudopotential
        Si             4.00    28.08500     Si( 1.00)

     24 Sym. Ops. (no inversion) found



   Cartesian axes

     site n.     atom                  positions (alat units)
         1           Si  tau(   1) = (   0.2500000   0.7500000   0.2500000  )
         2           Si  tau(   2) = (   0.0000000   0.0000000   0.5000000  )
         3           Si  tau(   3) = (   0.2500000   0.2500000   0.7500000  )
         4           Si  tau(   4) = (   0.0000000   0.5000000   0.0000000  )
         5           Si  tau(   5) = (   0.7500000   0.7500000   0.7500000  )
         6           Si  tau(   6) = (   0.5000000   0.0000000   0.0000000  )
         7           Si  tau(   7) = (   0.7500000   0.2500000   0.2500000  )
         8           Si  tau(   8) = (   0.5000000   0.5000000   0.5000000  )

     number of k points=     4
                       cart. coord. in units 2pi/alat
        k(    1) = (   0.1250000   0.1250000   0.1250000), wk =   0.2500000
        k(    2) = (   0.1250000   0.1250000   0.3750000), wk =   0.7500000
        k(    3) = (   0.1250000   0.3750000   0.3750000), wk =   0.7500000
        k(    4) = (   0.3750000   0.3750000   0.3750000), wk =   0.2500000

     Dense  grid:     2103 G-vectors     FFT dimensions: (  15,  15,  15)

     Estimated max dynamical RAM per process >       9.95 MB
     Found symmetry operation: I + (  0.0000  0.5000 -0.5000)
     This is a supercell, fractional translations are disabled
     Message from routine setup:
     using ibrav=0 with symmetry is DISCOURAGED, use correct ibrav instead

     Subspace diagonalization in iterative solution of the eigenvalue problem:
     a serial algorithm will be used


     G-vector sticks info
     --------------------
     sticks:   dense  smooth     PW     G-vecs:    dense   smooth      PW
     Sum         193     193     89                 2103     2103     619

     Using Slab Decomposition



     bravais-lattice index     =            0
     lattice parameter (alat)  =       3.2125  a.u.
     unit-cell volume          =      33.1546 (a.u.)^3
     number of atoms/cell      =            8
     number of atomic types    =            1
     number of electrons       =        32.00
     number of Kohn-Sham states=           16
     kinetic-energy cutoff     =      80.0000  Ry
     charge density cutoff     =     240.0000  Ry
     scf convergence threshold =      1.0E-08
     mixing beta               =       0.7000
     number of iterations used =            8  plain     mixing
     Exchange-correlation= SLA  PW   PBX  PBC
                           (   1   4   3   4   0   0   0)

     celldm(1)=   3.212534  celldm(2)=   0.000000  celldm(3)=   0.000000
     celldm(4)=   0.000000  celldm(5)=   0.000000  celldm(6)=   0.000000

     crystal axes: (cart. coord. in units of alat)
               a(1) = (   1.000000   0.000000   0.000000 )  
               a(2) = (   0.000000   1.000000   0.000000 )  
               a(3) = (   0.000000   0.000000   1.000000 )  

     reciprocal axes: (cart. coord. in units 2 pi/alat)
               b(1) = (  1.000000  0.000000  0.000000 )  
               b(2) = (  0.000000  1.000000  0.000000 )  
               b(3) = (  0.000000  0.000000  1.000000 )  


     PseudoPot. # 1 for Si read from file:
     ./pseudo/Si.pbe-n-kjpaw_psl.1.0.0.UPF
     MD5 check sum: c39c59da582df4a0d9f10159256ea34e
     Pseudo is Projector augmented-wave + core cor, Zval =  4.0
     Generated using &quot;atomic&quot; code by A. Dal Corso  v.6.3
     Shape of augmentation charge: PSQ
     Using radial grid of 1141 points,  6 beta functions with: 
                l(1) =   0
                l(2) =   0
                l(3) =   1
                l(4) =   1
                l(5) =   2
                l(6) =   2
     Q(r) pseudized with 0 coefficients 


     atomic species   valence    mass     pseudopotential
        Si             4.00    28.08500     Si( 1.00)

     24 Sym. Ops. (no inversion) found



   Cartesian axes

     site n.     atom                  positions (alat units)
         1           Si  tau(   1) = (   0.2500000   0.7500000   0.2500000  )
         2           Si  tau(   2) = (   0.0000000   0.0000000   0.5000000  )
         3           Si  tau(   3) = (   0.2500000   0.2500000   0.7500000  )
         4           Si  tau(   4) = (   0.0000000   0.5000000   0.0000000  )
         5           Si  tau(   5) = (   0.7500000   0.7500000   0.7500000  )
         6           Si  tau(   6) = (   0.5000000   0.0000000   0.0000000  )
         7           Si  tau(   7) = (   0.7500000   0.2500000   0.2500000  )
         8           Si  tau(   8) = (   0.5000000   0.5000000   0.5000000  )

     number of k points=     4
                       cart. coord. in units 2pi/alat
        k(    1) = (   0.1250000   0.1250000   0.1250000), wk =   0.2500000
[...]

     End of self-consistent calculation

          k = 0.1250 0.1250 0.1250 (   410 PWs)   bands (ev):

   109.6998 109.6998 109.7886 121.8491 121.8491 121.9052 157.5460 157.5460
   158.9047 181.4996 181.4996 190.5956 190.8269 190.8269 197.4105 197.4105

          k = 0.1250 0.1250 0.3750 (   399 PWs)   bands (ev):

   113.2491 113.3043 116.4567 122.8824 122.9238 136.5858 151.0933 163.9149
   169.0482 176.9091 177.0435 178.1700 180.6134 190.6458 193.5335 195.0032

          k = 0.1250 0.3750 0.3750 (   398 PWs)   bands (ev):

   118.7107 120.6011 120.6877 133.0365 137.1467 145.3973 145.4109 148.9031
   159.3470 159.4884 159.5443 168.9911 183.2126 192.9417 195.4560 195.5393

          k = 0.3750 0.3750 0.3750 (   396 PWs)   bands (ev):

   128.6287 128.6287 128.7359 146.4270 146.4270 148.1240 148.1240 148.1564
   150.1152 150.3262 150.3262 150.6424 174.4197 175.2219 175.2219 175.3239

     highest occupied level (ev):   197.4105

!    total energy              =    -143.58003563 Ry

     total all-electron energy =     -4410.346955 Ry
     estimated scf accuracy    <          7.5E-09 Ry

     The total energy is the sum of the following terms:
     one-electron contribution =     474.13592263 Ry
     hartree contribution      =       0.51024255 Ry
     xc contribution           =    -100.48837630 Ry
     ewald contribution        =    -214.63121087 Ry
     one-center paw contrib.   =    -303.10661365 Ry

     convergence has been achieved in  54 iterations

     total cpu time spent up to now is       61.6 secs

     End of self-consistent calculation

          k = 0.1250 0.1250 0.1250 (   410 PWs)   bands (ev):

   109.6998 109.6998 109.7886 121.8491 121.8491 121.9052 157.5460 157.5460
   158.9047 181.4996 181.4996 190.5956 190.8269 190.8269 197.4105 197.4105

          k = 0.1250 0.1250 0.3750 (   399 PWs)   bands (ev):

   113.2491 113.3043 116.4567 122.8824 122.9238 136.5858 151.0933 163.9149
   169.0482 176.9091 177.0435 178.1700 180.6134 190.6458 193.5335 195.0032

          k = 0.1250 0.3750 0.3750 (   398 PWs)   bands (ev):

   118.7107 120.6011 120.6877 133.0365 137.1467 145.3973 145.4109 148.9031
   159.3470 159.4884 159.5443 168.9911 183.2126 192.9417 195.4560 195.5393

          k = 0.3750 0.3750 0.3750 (   396 PWs)   bands (ev):

   128.6287 128.6287 128.7359 146.4270 146.4270 148.1240 148.1240 148.1564
   150.1152 150.3262 150.3262 150.6424 174.4197 175.2219 175.2219 175.3239

     highest occupied level (ev):   197.4105

!    total energy              =    -143.58003563 Ry

     total all-electron energy =     -4410.346955 Ry
     estimated scf accuracy    <          7.5E-09 Ry

     The total energy is the sum of the following terms:
     one-electron contribution =     474.13592263 Ry
     hartree contribution      =       0.51024255 Ry
     xc contribution           =    -100.48837630 Ry
     ewald contribution        =    -214.63121087 Ry
     one-center paw contrib.   =    -303.10661365 Ry

     convergence has been achieved in  54 iterations

     Writing output data file ./out_qa/qa.save/

     Writing output data file ./out_qa/qa.save/

     init_run     :      1.33s CPU      1.38s WALL (       1 calls)
     electrons    :     59.72s CPU     59.98s WALL (       1 calls)

     Called by init_run:
     wfcinit      :      0.05s CPU      0.05s WALL (       1 calls)
     potinit      :      1.00s CPU      1.04s WALL (       1 calls)
     hinit0       :      0.27s CPU      0.27s WALL (       1 calls)

     Called by electrons:
     c_bands      :      4.08s CPU      4.12s WALL (      54 calls)
     sum_band     :      0.62s CPU      0.62s WALL (      54 calls)
     v_of_rho     :      0.08s CPU      0.08s WALL (      55 calls)
     newd         :      0.44s CPU      0.45s WALL (      55 calls)
     PAW_pot      :     55.43s CPU     55.68s WALL (      55 calls)
     mix_rho      :      0.02s CPU      0.02s WALL (      54 calls)

     Called by c_bands:
     init_us_2    :      0.08s CPU      0.08s WALL (     436 calls)
     cegterg      :      3.69s CPU      3.73s WALL (     216 calls)

     Called by *egterg:
     cdiaghg      :      0.21s CPU      0.21s WALL (     867 calls)
     h_psi        :      1.88s CPU      1.90s WALL (     871 calls)
     s_psi        :      0.96s CPU      0.97s WALL (     871 calls)
     g_psi        :      0.01s CPU      0.01s WALL (     651 calls)

     Called by h_psi:
     h_psi:calbec :      0.60s CPU      0.61s WALL (     871 calls)
     vloc_psi     :      0.31s CPU      0.32s WALL (     871 calls)
     add_vuspsi   :      0.96s CPU      0.97s WALL (     871 calls)

     General routines
     calbec       :      0.81s CPU      0.83s WALL (    1087 calls)
     fft          :      0.01s CPU      0.01s WALL (     605 calls)
     ffts         :      0.00s CPU      0.00s WALL (      54 calls)
     fftw         :      0.29s CPU      0.30s WALL (   22572 calls)

     Parallel routines

     PWSCF        :   1m 1.15s CPU   1m 1.52s WALL


   This run was terminated on:  15:56:39  14Jun2022            

=------------------------------------------------------------------------------=
   JOB DONE.
=------------------------------------------------------------------------------=

     init_run     :      1.33s CPU      1.38s WALL (       1 calls)
     electrons    :     59.76s CPU     59.97s WALL (       1 calls)

     Called by init_run:
     wfcinit      :      0.05s CPU      0.05s WALL (       1 calls)
     potinit      :      1.00s CPU      1.04s WALL (       1 calls)
     hinit0       :      0.27s CPU      0.27s WALL (       1 calls)

     Called by electrons:
     c_bands      :      4.09s CPU      4.12s WALL (      54 calls)
     sum_band     :      0.62s CPU      0.62s WALL (      54 calls)
     v_of_rho     :      0.08s CPU      0.08s WALL (      55 calls)
     newd         :      0.45s CPU      0.45s WALL (      55 calls)
     PAW_pot      :     55.46s CPU     55.67s WALL (      55 calls)
     mix_rho      :      0.02s CPU      0.02s WALL (      54 calls)

     Called by c_bands:
     init_us_2    :      0.08s CPU      0.08s WALL (     436 calls)
     cegterg      :      3.70s CPU      3.73s WALL (     216 calls)

     Called by *egterg:
     cdiaghg      :      0.21s CPU      0.21s WALL (     867 calls)
     h_psi        :      1.89s CPU      1.91s WALL (     871 calls)
     s_psi        :      0.97s CPU      0.97s WALL (     871 calls)
     g_psi        :      0.01s CPU      0.01s WALL (     651 calls)

     Called by h_psi:
     h_psi:calbec :      0.60s CPU      0.61s WALL (     871 calls)
     vloc_psi     :      0.31s CPU      0.32s WALL (     871 calls)
     add_vuspsi   :      0.97s CPU      0.97s WALL (     871 calls)

     General routines
     calbec       :      0.82s CPU      0.83s WALL (    1087 calls)
     fft          :      0.01s CPU      0.01s WALL (     605 calls)
     ffts         :      0.00s CPU      0.00s WALL (      54 calls)
     fftw         :      0.29s CPU      0.30s WALL (   22572 calls)

     Parallel routines

     PWSCF        :   1m 1.19s CPU   1m 1.46s WALL


   This run was terminated on:  15:56:39  14Jun2022            

=------------------------------------------------------------------------------=
   JOB DONE.
=------------------------------------------------------------------------------=

     total cpu time spent up to now is       61.5 secs

     End of self-consistent calculation

          k = 0.1250 0.1250 0.1250 (   410 PWs)   bands (ev):

   109.6998 109.6998 109.7886 121.8491 121.8491 121.9052 157.5460 157.5460
   158.9047 181.4996 181.4996 190.5956 190.8269 190.8269 197.4105 197.4105

          k = 0.1250 0.1250 0.3750 (   399 PWs)   bands (ev):

   113.2491 113.3043 116.4567 122.8824 122.9238 136.5858 151.0933 163.9149
   169.0482 176.9091 177.0435 178.1700 180.6134 190.6458 193.5335 195.0032

          k = 0.1250 0.3750 0.3750 (   398 PWs)   bands (ev):

   118.7107 120.6011 120.6877 133.0365 137.1467 145.3973 145.4109 148.9031
   159.3470 159.4884 159.5443 168.9911 183.2126 192.9417 195.4560 195.5393

          k = 0.3750 0.3750 0.3750 (   396 PWs)   bands (ev):

   128.6287 128.6287 128.7359 146.4270 146.4270 148.1240 148.1240 148.1564
   150.1152 150.3262 150.3262 150.6424 174.4197 175.2219 175.2219 175.3239

     highest occupied level (ev):   197.4105

!    total energy              =    -143.58003563 Ry

     total all-electron energy =     -4410.346955 Ry
     estimated scf accuracy    <          7.5E-09 Ry

     The total energy is the sum of the following terms:
     one-electron contribution =     474.13592263 Ry
     hartree contribution      =       0.51024255 Ry
     xc contribution           =    -100.48837630 Ry
     ewald contribution        =    -214.63121087 Ry
     one-center paw contrib.   =    -303.10661365 Ry

     convergence has been achieved in  54 iterations

     Writing output data file ./out_qa/qa.save/

     init_run     :      1.33s CPU      1.38s WALL (       1 calls)
     electrons    :     59.75s CPU     60.02s WALL (       1 calls)

     Called by init_run:
     wfcinit      :      0.05s CPU      0.05s WALL (       1 calls)
     potinit      :      1.00s CPU      1.05s WALL (       1 calls)
     hinit0       :      0.27s CPU      0.27s WALL (       1 calls)

     Called by electrons:
     c_bands      :      4.07s CPU      4.11s WALL (      54 calls)
     sum_band     :      0.61s CPU      0.62s WALL (      54 calls)
     v_of_rho     :      0.08s CPU      0.08s WALL (      55 calls)
     newd         :      0.44s CPU      0.44s WALL (      55 calls)
     PAW_pot      :     55.48s CPU     55.75s WALL (      55 calls)
     mix_rho      :      0.02s CPU      0.02s WALL (      54 calls)

     Called by c_bands:
     init_us_2    :      0.08s CPU      0.08s WALL (     436 calls)
     cegterg      :      3.67s CPU      3.71s WALL (     216 calls)

     Called by *egterg:
     cdiaghg      :      0.21s CPU      0.21s WALL (     867 calls)
     h_psi        :      1.87s CPU      1.90s WALL (     871 calls)
     s_psi        :      0.96s CPU      0.97s WALL (     871 calls)
     g_psi        :      0.01s CPU      0.01s WALL (     651 calls)

     Called by h_psi:
     h_psi:calbec :      0.60s CPU      0.61s WALL (     871 calls)
     vloc_psi     :      0.31s CPU      0.31s WALL (     871 calls)
     add_vuspsi   :      0.96s CPU      0.97s WALL (     871 calls)

     General routines
     calbec       :      0.81s CPU      0.83s WALL (    1087 calls)
     fft          :      0.01s CPU      0.01s WALL (     605 calls)
     ffts         :      0.00s CPU      0.00s WALL (      54 calls)
     fftw         :      0.29s CPU      0.30s WALL (   22572 calls)

     Parallel routines

     PWSCF        :   1m 1.18s CPU   1m 1.50s WALL


   This run was terminated on:  15:56:39  14Jun2022            

=------------------------------------------------------------------------------=
   JOB DONE.
=------------------------------------------------------------------------------=

     total cpu time spent up to now is       61.5 secs

     End of self-consistent calculation

          k = 0.1250 0.1250 0.1250 (   410 PWs)   bands (ev):

   109.6998 109.6998 109.7886 121.8491 121.8491 121.9052 157.5460 157.5460
   158.9047 181.4996 181.4996 190.5956 190.8269 190.8269 197.4105 197.4105

          k = 0.1250 0.1250 0.3750 (   399 PWs)   bands (ev):

   113.2491 113.3043 116.4567 122.8824 122.9238 136.5858 151.0933 163.9149
   169.0482 176.9091 177.0435 178.1700 180.6134 190.6458 193.5335 195.0032

          k = 0.1250 0.3750 0.3750 (   398 PWs)   bands (ev):

   118.7107 120.6011 120.6877 133.0365 137.1467 145.3973 145.4109 148.9031
   159.3470 159.4884 159.5443 168.9911 183.2126 192.9417 195.4560 195.5393

          k = 0.3750 0.3750 0.3750 (   396 PWs)   bands (ev):

   128.6287 128.6287 128.7359 146.4270 146.4270 148.1240 148.1240 148.1564
   150.1152 150.3262 150.3262 150.6424 174.4197 175.2219 175.2219 175.3239

     highest occupied level (ev):   197.4105

!    total energy              =    -143.58003563 Ry

     total all-electron energy =     -4410.346955 Ry
     estimated scf accuracy    <          7.5E-09 Ry

     The total energy is the sum of the following terms:
     one-electron contribution =     474.13592263 Ry
     hartree contribution      =       0.51024255 Ry
     xc contribution           =    -100.48837630 Ry
     ewald contribution        =    -214.63121087 Ry
     one-center paw contrib.   =    -303.10661365 Ry

     convergence has been achieved in  54 iterations

     Writing output data file ./out_qa/qa.save/

     init_run     :      1.32s CPU      1.37s WALL (       1 calls)
     electrons    :     59.85s CPU     60.09s WALL (       1 calls)

     Called by init_run:
     wfcinit      :      0.05s CPU      0.05s WALL (       1 calls)
     potinit      :      1.00s CPU      1.04s WALL (       1 calls)
     hinit0       :      0.27s CPU      0.27s WALL (       1 calls)

     Called by electrons:
     c_bands      :      4.09s CPU      4.13s WALL (      54 calls)
     sum_band     :      0.62s CPU      0.62s WALL (      54 calls)
     v_of_rho     :      0.08s CPU      0.08s WALL (      55 calls)
     newd         :      0.44s CPU      0.45s WALL (      55 calls)
     PAW_pot      :     55.55s CPU     55.78s WALL (      55 calls)
     mix_rho      :      0.02s CPU      0.02s WALL (      54 calls)

     Called by c_bands:
     init_us_2    :      0.08s CPU      0.08s WALL (     436 calls)
     cegterg      :      3.69s CPU      3.73s WALL (     216 calls)

     Called by *egterg:
     cdiaghg      :      0.21s CPU      0.21s WALL (     867 calls)
     h_psi        :      1.88s CPU      1.91s WALL (     871 calls)
     s_psi        :      0.96s CPU      0.97s WALL (     871 calls)
     g_psi        :      0.01s CPU      0.01s WALL (     651 calls)

     Called by h_psi:
     h_psi:calbec :      0.60s CPU      0.61s WALL (     871 calls)
     vloc_psi     :      0.31s CPU      0.32s WALL (     871 calls)
     add_vuspsi   :      0.97s CPU      0.97s WALL (     871 calls)

     General routines
     calbec       :      0.82s CPU      0.83s WALL (    1087 calls)
     fft          :      0.01s CPU      0.01s WALL (     605 calls)
     ffts         :      0.00s CPU      0.00s WALL (      54 calls)
     fftw         :      0.29s CPU      0.30s WALL (   22572 calls)

     Parallel routines

     PWSCF        :   1m 1.27s CPU   1m 1.56s WALL


   This run was terminated on:  15:56:39  14Jun2022            

=------------------------------------------------------------------------------=
   JOB DONE.
=------------------------------------------------------------------------------=

     total cpu time spent up to now is       61.5 secs

     End of self-consistent calculation

          k = 0.1250 0.1250 0.1250 (   410 PWs)   bands (ev):

   109.6998 109.6998 109.7886 121.8491 121.8491 121.9052 157.5460 157.5460
   158.9047 181.4996 181.4996 190.5956 190.8269 190.8269 197.4105 197.4105

          k = 0.1250 0.1250 0.3750 (   399 PWs)   bands (ev):

   113.2491 113.3043 116.4567 122.8824 122.9238 136.5858 151.0933 163.9149
   169.0482 176.9091 177.0435 178.1700 180.6134 190.6458 193.5335 195.0032

          k = 0.1250 0.3750 0.3750 (   398 PWs)   bands (ev):

   118.7107 120.6011 120.6877 133.0365 137.1467 145.3973 145.4109 148.9031
   159.3470 159.4884 159.5443 168.9911 183.2126 192.9417 195.4560 195.5393

          k = 0.3750 0.3750 0.3750 (   396 PWs)   bands (ev):

   128.6287 128.6287 128.7359 146.4270 146.4270 148.1240 148.1240 148.1564
   150.1152 150.3262 150.3262 150.6424 174.4197 175.2219 175.2219 175.3239

     highest occupied level (ev):   197.4105

!    total energy              =    -143.58003563 Ry

     total all-electron energy =     -4410.346955 Ry
     estimated scf accuracy    <          7.5E-09 Ry

     The total energy is the sum of the following terms:
     one-electron contribution =     474.13592263 Ry
     hartree contribution      =       0.51024255 Ry
     xc contribution           =    -100.48837630 Ry
     ewald contribution        =    -214.63121087 Ry
     one-center paw contrib.   =    -303.10661365 Ry

     convergence has been achieved in  54 iterations

     total cpu time spent up to now is       61.5 secs

     End of self-consistent calculation

          k = 0.1250 0.1250 0.1250 (   410 PWs)   bands (ev):

   109.6998 109.6998 109.7886 121.8491 121.8491 121.9052 157.5460 157.5460
   158.9047 181.4996 181.4996 190.5956 190.8269 190.8269 197.4105 197.4105

          k = 0.1250 0.1250 0.3750 (   399 PWs)   bands (ev):

   113.2491 113.3043 116.4567 122.8824 122.9238 136.5858 151.0933 163.9149
   169.0482 176.9091 177.0435 178.1700 180.6134 190.6458 193.5335 195.0032

          k = 0.1250 0.3750 0.3750 (   398 PWs)   bands (ev):

   118.7107 120.6011 120.6877 133.0365 137.1467 145.3973 145.4109 148.9031
   159.3470 159.4884 159.5443 168.9911 183.2126 192.9417 195.4560 195.5393

          k = 0.3750 0.3750 0.3750 (   396 PWs)   bands (ev):

   128.6287 128.6287 128.7359 146.4270 146.4270 148.1240 148.1240 148.1564
   150.1152 150.3262 150.3262 150.6424 174.4197 175.2219 175.2219 175.3239

     highest occupied level (ev):   197.4105

!    total energy              =    -143.58003563 Ry

     total all-electron energy =     -4410.346955 Ry
     estimated scf accuracy    <          7.5E-09 Ry

     The total energy is the sum of the following terms:
     one-electron contribution =     474.13592263 Ry
     hartree contribution      =       0.51024255 Ry
     xc contribution           =    -100.48837630 Ry
     ewald contribution        =    -214.63121087 Ry
     one-center paw contrib.   =    -303.10661365 Ry

     convergence has been achieved in  54 iterations

     Writing output data file ./out_qa/qa.save/

     Writing output data file ./out_qa/qa.save/

     init_run     :      1.33s CPU      1.38s WALL (       1 calls)
     electrons    :     59.83s CPU     60.04s WALL (       1 calls)

     Called by init_run:
     wfcinit      :      0.05s CPU      0.05s WALL (       1 calls)
     potinit      :      1.00s CPU      1.04s WALL (       1 calls)
     hinit0       :      0.27s CPU      0.27s WALL (       1 calls)

     Called by electrons:
     c_bands      :      4.08s CPU      4.11s WALL (      54 calls)
     sum_band     :      0.62s CPU      0.62s WALL (      54 calls)
     v_of_rho     :      0.08s CPU      0.08s WALL (      55 calls)
     newd         :      0.44s CPU      0.44s WALL (      55 calls)
     PAW_pot      :     55.54s CPU     55.75s WALL (      55 calls)
     mix_rho      :      0.02s CPU      0.02s WALL (      54 calls)

     Called by c_bands:
     init_us_2    :      0.08s CPU      0.08s WALL (     436 calls)
     cegterg      :      3.69s CPU      3.71s WALL (     216 calls)

     Called by *egterg:
     cdiaghg      :      0.21s CPU      0.21s WALL (     867 calls)
     h_psi        :      1.88s CPU      1.90s WALL (     871 calls)
     s_psi        :      0.96s CPU      0.97s WALL (     871 calls)
     g_psi        :      0.01s CPU      0.01s WALL (     651 calls)

     Called by h_psi:
     h_psi:calbec :      0.60s CPU      0.61s WALL (     871 calls)
     vloc_psi     :      0.31s CPU      0.31s WALL (     871 calls)
     add_vuspsi   :      0.96s CPU      0.97s WALL (     871 calls)

     General routines
     calbec       :      0.82s CPU      0.83s WALL (    1087 calls)
     fft          :      0.01s CPU      0.01s WALL (     605 calls)
     ffts         :      0.00s CPU      0.00s WALL (      54 calls)
     fftw         :      0.29s CPU      0.29s WALL (   22572 calls)

     Parallel routines

     PWSCF        :   1m 1.26s CPU   1m 1.53s WALL


   This run was terminated on:  15:56:39  14Jun2022            

=------------------------------------------------------------------------------=
   JOB DONE.
=------------------------------------------------------------------------------=
